  16  16   1   0
  0.6439303E+02  0.7759100E-09  0.1173340E-08  0.1131680E-08  0.1000000E-14
   500.000000000000     
  CAR 
 Cluster                                 
      3.93635234    -31.59151573  301     -4.25792599      1.00000000
    -31.592  0.0000E+00  0.0000E+00
    -31.473  0.0000E+00  0.0000E+00
    -31.355  0.0000E+00  0.0000E+00
    -31.236  0.0000E+00  0.0000E+00
    -31.118  0.0000E+00  0.0000E+00
    -30.999  0.0000E+00  0.0000E+00
    -30.881 -0.1905E-33 -0.2234E-34
    -30.763 -0.5783E-25 -0.6797E-26
    -30.644 -0.1186E-17 -0.1397E-18
    -30.526 -0.1571E-11 -0.1859E-12
    -30.407 -0.1350E-06 -0.1604E-07
    -30.289 -0.6690E-03 -0.7974E-04
    -30.170 -0.1531E+00 -0.1836E-01
    -30.052  0.4994E+00  0.4126E-01
    -29.934  0.1357E+02  0.1665E+01
    -29.815  0.3168E+01  0.2043E+01
    -29.697 -0.3582E+00  0.2000E+01
    -29.578 -0.4061E-02  0.2000E+01
    -29.460 -0.1834E-05  0.2000E+01
    -29.341 -0.4592E-10  0.2000E+01
    -29.223  0.0000E+00  0.2000E+01
    -29.105  0.0000E+00  0.2000E+01
    -28.986  0.0000E+00  0.2000E+01
    -28.868  0.0000E+00  0.2000E+01
    -28.749  0.0000E+00  0.2000E+01
    -28.631  0.0000E+00  0.2000E+01
    -28.512  0.0000E+00  0.2000E+01
    -28.394  0.0000E+00  0.2000E+01
    -28.276  0.0000E+00  0.2000E+01
    -28.157  0.0000E+00  0.2000E+01
    -28.039  0.0000E+00  0.2000E+01
    -27.920  0.0000E+00  0.2000E+01
    -27.802  0.0000E+00  0.2000E+01
    -27.683  0.0000E+00  0.2000E+01
    -27.565  0.0000E+00  0.2000E+01
    -27.447  0.0000E+00  0.2000E+01
    -27.328  0.0000E+00  0.2000E+01
    -27.210  0.0000E+00  0.2000E+01
    -27.091  0.0000E+00  0.2000E+01
    -26.973  0.0000E+00  0.2000E+01
    -26.854  0.0000E+00  0.2000E+01
    -26.736  0.0000E+00  0.2000E+01
    -26.618  0.0000E+00  0.2000E+01
    -26.499  0.0000E+00  0.2000E+01
    -26.381  0.0000E+00  0.2000E+01
    -26.262  0.0000E+00  0.2000E+01
    -26.144  0.0000E+00  0.2000E+01
    -26.025  0.0000E+00  0.2000E+01
    -25.907  0.0000E+00  0.2000E+01
    -25.789  0.0000E+00  0.2000E+01
    -25.670  0.0000E+00  0.2000E+01
    -25.552  0.0000E+00  0.2000E+01
    -25.433  0.0000E+00  0.2000E+01
    -25.315  0.0000E+00  0.2000E+01
    -25.196  0.0000E+00  0.2000E+01
    -25.078  0.0000E+00  0.2000E+01
    -24.960  0.0000E+00  0.2000E+01
    -24.841 -0.2725E-33  0.2000E+01
    -24.723 -0.5119E-25  0.2000E+01
    -24.604 -0.5826E-18  0.2000E+01
    -24.486 -0.3849E-12  0.2000E+01
    -24.368 -0.1536E-07  0.2000E+01
    -24.249 -0.3470E-04  0.2000E+01
    -24.131 -0.3722E-02  0.2000E+01
    -24.012  0.1971E-01  0.2002E+01
    -23.894  0.2302E+00  0.2029E+01
    -23.775  0.1965E+00  0.2052E+01
    -23.657  0.1968E+00  0.2075E+01
    -23.539  0.2917E+00  0.2110E+01
    -23.420  0.5244E+00  0.2172E+01
    -23.302  0.9849E+00  0.2289E+01
    -23.183  0.1089E+01  0.2417E+01
    -23.065  0.1523E+01  0.2598E+01
    -22.946  0.3008E+01  0.2957E+01
    -22.828  0.3374E+01  0.3360E+01
    -22.710  0.2623E+01  0.3675E+01
    -22.591  0.2721E+01  0.4002E+01
    -22.473  0.1877E+01  0.4226E+01
    -22.354  0.9959E+00  0.4344E+01
    -22.236  0.1501E+01  0.4524E+01
    -22.117  0.2790E+01  0.4857E+01
    -21.999  0.3092E+01  0.5226E+01
    -21.881  0.2266E+01  0.5498E+01
    -21.762  0.1874E+01  0.5725E+01
    -21.644  0.1106E+01  0.5858E+01
    -21.525  0.4182E+00  0.5908E+01
    -21.407  0.3138E+00  0.5946E+01
    -21.288  0.1639E+00  0.5966E+01
    -21.170  0.3257E-01  0.5970E+01
    -21.052  0.8458E-01  0.5981E+01
    -20.933  0.9477E-01  0.5992E+01
    -20.815  0.6780E-01  0.6001E+01
    -20.696 -0.3954E-02  0.6000E+01
    -20.578 -0.2449E-03  0.6000E+01
    -20.459 -0.4502E-06  0.6000E+01
    -20.341 -0.1833E-03  0.6000E+01
    -20.223 -0.1062E-01  0.5999E+01
    -20.104  0.8048E-01  0.6008E+01
    -19.986  0.4601E+00  0.6062E+01
    -19.867  0.6505E+00  0.6139E+01
    -19.749  0.8962E+00  0.6244E+01
    -19.630  0.1899E+01  0.6472E+01
    -19.512  0.3572E+01  0.6900E+01
    -19.394  0.3151E+01  0.7275E+01
    -19.275  0.2458E+01  0.7569E+01
    -19.157  0.2357E+01  0.7854E+01
    -19.038  0.9885E+00  0.7973E+01
    -18.920  0.2290E+00  0.8001E+01
    -18.801  0.2601E-01  0.8004E+01
    -18.683  0.4874E+00  0.8062E+01
    -18.565  0.5355E+00  0.8125E+01
    -18.446  0.5148E+00  0.8186E+01
    -18.328  0.1021E+01  0.8308E+01
    -18.209  0.2502E+01  0.8607E+01
    -18.091  0.3630E+01  0.9041E+01
    -17.972  0.3838E+01  0.9499E+01
    -17.854  0.2415E+01  0.9788E+01
    -17.736  0.8938E+00  0.9896E+01
    -17.617  0.3385E+00  0.9937E+01
    -17.499  0.4006E+00  0.9986E+01
    -17.380  0.1870E+00  0.1001E+02
    -17.262  0.2676E+00  0.1004E+02
    -17.144  0.2301E+00  0.1007E+02
    -17.025  0.5612E+00  0.1013E+02
    -16.907  0.1695E+01  0.1034E+02
    -16.788  0.2478E+01  0.1063E+02
    -16.670  0.3971E+01  0.1111E+02
    -16.551  0.4185E+01  0.1161E+02
    -16.433  0.2285E+01  0.1188E+02
    -16.315  0.6125E+00  0.1196E+02
    -16.196  0.3706E+00  0.1200E+02
    -16.078  0.9711E-03  0.1200E+02
    -15.959 -0.3648E-02  0.1200E+02
    -15.841 -0.5760E-02  0.1200E+02
    -15.722  0.4842E-01  0.1200E+02
    -15.604  0.2392E+00  0.1203E+02
    -15.486  0.1389E+00  0.1205E+02
    -15.367  0.3530E+00  0.1209E+02
    -15.249  0.6102E+00  0.1216E+02
    -15.130  0.1631E+01  0.1236E+02
    -15.012  0.3832E+01  0.1282E+02
    -14.893  0.5818E+01  0.1351E+02
    -14.775  0.5632E+01  0.1419E+02
    -14.657  0.5050E+01  0.1479E+02
    -14.538  0.4182E+01  0.1529E+02
    -14.420  0.3097E+01  0.1566E+02
    -14.301  0.1736E+01  0.1587E+02
    -14.183  0.8003E+00  0.1597E+02
    -14.064  0.2042E+00  0.1599E+02
    -13.946  0.9105E-01  0.1600E+02
    -13.828 -0.7559E-02  0.1600E+02
    -13.709 -0.8930E-02  0.1600E+02
    -13.591  0.5961E-01  0.1601E+02
    -13.472  0.4728E+00  0.1606E+02
    -13.354  0.6003E+00  0.1613E+02
    -13.235  0.1060E+01  0.1626E+02
    -13.117  0.2559E+01  0.1657E+02
    -12.999  0.3897E+01  0.1704E+02
    -12.880  0.5338E+01  0.1767E+02
    -12.762  0.3938E+01  0.1814E+02
    -12.643  0.4444E+01  0.1868E+02
    -12.525  0.5497E+01  0.1933E+02
    -12.406  0.4310E+01  0.1985E+02
    -12.288  0.2323E+01  0.2013E+02
    -12.170  0.2024E+01  0.2037E+02
    -12.051  0.1906E+01  0.2059E+02
    -11.933  0.1773E+01  0.2081E+02
    -11.814  0.2897E+01  0.2115E+02
    -11.696  0.3252E+01  0.2154E+02
    -11.577  0.2223E+01  0.2181E+02
    -11.459  0.1900E+01  0.2203E+02
    -11.341  0.2979E+01  0.2239E+02
    -11.222  0.3610E+01  0.2282E+02
    -11.104  0.4609E+01  0.2338E+02
    -10.985  0.4377E+01  0.2390E+02
    -10.867  0.5957E+01  0.2462E+02
    -10.748  0.5001E+01  0.2521E+02
    -10.630  0.3324E+01  0.2561E+02
    -10.512  0.3316E+01  0.2600E+02
    -10.393  0.3583E+01  0.2643E+02
    -10.275  0.3640E+01  0.2687E+02
    -10.156  0.4257E+01  0.2738E+02
    -10.038  0.5182E+01  0.2800E+02
     -9.920  0.6491E+01  0.2877E+02
     -9.801  0.8080E+01  0.2974E+02
     -9.683  0.7827E+01  0.3068E+02
     -9.564  0.8093E+01  0.3165E+02
     -9.446  0.7755E+01  0.3258E+02
     -9.327  0.6858E+01  0.3339E+02
     -9.209  0.5599E+01  0.3406E+02
     -9.091  0.4897E+01  0.3464E+02
     -8.972  0.4541E+01  0.3519E+02
     -8.854  0.6276E+01  0.3594E+02
     -8.735  0.6232E+01  0.3669E+02
     -8.617  0.5089E+01  0.3729E+02
     -8.498  0.3521E+01  0.3771E+02
     -8.380  0.2382E+01  0.3800E+02
     -8.262  0.2353E+01  0.3828E+02
     -8.143  0.1754E+01  0.3849E+02
     -8.025  0.2695E+01  0.3881E+02
     -7.906  0.3876E+01  0.3928E+02
     -7.788  0.3583E+01  0.3970E+02
     -7.669  0.3546E+01  0.4013E+02
     -7.551  0.3224E+01  0.4051E+02
     -7.433  0.3196E+01  0.4089E+02
     -7.314  0.2475E+01  0.4119E+02
     -7.196  0.1098E+01  0.4132E+02
     -7.077  0.1664E+01  0.4152E+02
     -6.959  0.1911E+01  0.4175E+02
     -6.840  0.1128E+01  0.4188E+02
     -6.722  0.5669E+00  0.4195E+02
     -6.604  0.3888E+00  0.4200E+02
     -6.485  0.2437E+00  0.4203E+02
     -6.367  0.4716E+00  0.4208E+02
     -6.248  0.1220E+01  0.4223E+02
     -6.130  0.2118E+01  0.4249E+02
     -6.011  0.3125E+01  0.4286E+02
     -5.893  0.3594E+01  0.4329E+02
     -5.775  0.4169E+01  0.4379E+02
     -5.656  0.2709E+01  0.4411E+02
     -5.538  0.2402E+01  0.4440E+02
     -5.419  0.2369E+01  0.4468E+02
     -5.301  0.4232E+01  0.4519E+02
     -5.182  0.4160E+01  0.4569E+02
     -5.064  0.4118E+01  0.4618E+02
     -4.946  0.3954E+01  0.4665E+02
     -4.827  0.3231E+01  0.4704E+02
     -4.709  0.2571E+01  0.4735E+02
     -4.590  0.2217E+01  0.4761E+02
     -4.472  0.1778E+01  0.4782E+02
     -4.353  0.1384E+01  0.4798E+02
     -4.235  0.1533E+00  0.4800E+02
     -4.117 -0.2344E-01  0.4800E+02
     -3.998 -0.4745E-03  0.4800E+02
     -3.880 -0.5829E-06  0.4800E+02
     -3.761 -0.4615E-10  0.4800E+02
     -3.643 -0.2123E-15  0.4800E+02
     -3.524  0.0000E+00  0.4800E+02
     -3.406  0.0000E+00  0.4800E+02
     -3.288  0.0000E+00  0.4800E+02
     -3.169  0.0000E+00  0.4800E+02
     -3.051  0.0000E+00  0.4800E+02
     -2.932 -0.2220E-35  0.4800E+02
     -2.814 -0.1212E-26  0.4800E+02
     -2.696 -0.3385E-19  0.4800E+02
     -2.577 -0.4654E-13  0.4800E+02
     -2.459 -0.3267E-08  0.4800E+02
     -2.340 -0.1100E-04  0.4800E+02
     -2.222 -0.1481E-02  0.4800E+02
     -2.103  0.8746E-02  0.4800E+02
     -1.985  0.9791E-01  0.4801E+02
     -1.867  0.9105E-01  0.4802E+02
     -1.748  0.1669E+00  0.4804E+02
     -1.630  0.5786E+00  0.4811E+02
     -1.511  0.1331E+01  0.4827E+02
     -1.393  0.1793E+01  0.4849E+02
     -1.274  0.2502E+01  0.4879E+02
     -1.156  0.4263E+01  0.4930E+02
     -1.038  0.5176E+01  0.4992E+02
     -0.919  0.6273E+01  0.5068E+02
     -0.801  0.7229E+01  0.5154E+02
     -0.682  0.6194E+01  0.5228E+02
     -0.564  0.4406E+01  0.5281E+02
     -0.445  0.3839E+01  0.5327E+02
     -0.327  0.3681E+01  0.5370E+02
     -0.209  0.2746E+01  0.5403E+02
     -0.090  0.2459E+01  0.5432E+02
      0.028  0.3368E+01  0.5473E+02
      0.147  0.4704E+01  0.5529E+02
      0.265  0.6241E+01  0.5604E+02
      0.384  0.7031E+01  0.5689E+02
      0.502  0.8244E+01  0.5787E+02
      0.620  0.8168E+01  0.5885E+02
      0.739  0.7363E+01  0.5973E+02
      0.857  0.6988E+01  0.6056E+02
      0.976  0.5590E+01  0.6123E+02
      1.094  0.5590E+01  0.6190E+02
      1.213  0.5536E+01  0.6256E+02
      1.331  0.7433E+01  0.6345E+02
      1.449  0.7109E+01  0.6430E+02
      1.568  0.7690E+01  0.6523E+02
      1.686  0.8359E+01  0.6622E+02
      1.805  0.8015E+01  0.6718E+02
      1.923  0.7542E+01  0.6808E+02
      2.042  0.7116E+01  0.6893E+02
      2.160  0.5192E+01  0.6954E+02
      2.278  0.6233E+01  0.7028E+02
      2.397  0.1406E+02  0.7196E+02
      2.515  0.4499E+00  0.7202E+02
      2.634 -0.1555E+00  0.7200E+02
      2.752 -0.6745E-03  0.7200E+02
      2.871 -0.1358E-06  0.7200E+02
      2.989 -0.1577E-11  0.7200E+02
      3.107  0.0000E+00  0.7200E+02
      3.226  0.0000E+00  0.7200E+02
      3.344  0.0000E+00  0.7200E+02
      3.463  0.0000E+00  0.7200E+02
      3.581  0.0000E+00  0.7200E+02
      3.699  0.0000E+00  0.7200E+02
      3.818  0.0000E+00  0.7200E+02
      3.936  0.0000E+00  0.7200E+02
      4.07358421    -31.52518329  301     -4.24298641      1.00000000
    -31.525  0.0000E+00  0.0000E+00
    -31.407  0.0000E+00  0.0000E+00
    -31.288  0.0000E+00  0.0000E+00
    -31.169  0.0000E+00  0.0000E+00
    -31.051  0.0000E+00  0.0000E+00
    -30.932  0.0000E+00  0.0000E+00
    -30.813 -0.3140E-36 -0.3726E-37
    -30.695 -0.1459E-27 -0.1731E-28
    -30.576 -0.3964E-20 -0.4704E-21
    -30.457 -0.6039E-14 -0.7166E-15
    -30.339 -0.5313E-09 -0.6305E-10
    -30.220 -0.2514E-05 -0.2983E-06
    -30.101 -0.5372E-03 -0.6404E-04
    -29.983  0.1795E-02  0.1489E-03
    -29.864  0.4539E-01  0.5535E-02
    -29.745  0.1079E-01  0.6815E-02
    -29.627 -0.1234E-02  0.6668E-02
    -29.508 -0.1498E-04  0.6667E-02
    -29.389 -0.7161E-08  0.6667E-02
    -29.271 -0.1794E-12  0.6667E-02
    -29.152  0.0000E+00  0.6667E-02
    -29.033  0.0000E+00  0.6667E-02
    -28.915  0.0000E+00  0.6667E-02
    -28.796  0.0000E+00  0.6667E-02
    -28.677  0.0000E+00  0.6667E-02
    -28.559  0.0000E+00  0.6667E-02
    -28.440  0.0000E+00  0.6667E-02
    -28.321  0.0000E+00  0.6667E-02
    -28.203  0.0000E+00  0.6667E-02
    -28.084  0.0000E+00  0.6667E-02
    -27.965  0.0000E+00  0.6667E-02
    -27.847  0.0000E+00  0.6667E-02
    -27.728  0.0000E+00  0.6667E-02
    -27.609  0.0000E+00  0.6667E-02
    -27.491  0.0000E+00  0.6667E-02
    -27.372  0.0000E+00  0.6667E-02
    -27.253  0.0000E+00  0.6667E-02
    -27.135  0.0000E+00  0.6667E-02
    -27.016  0.0000E+00  0.6667E-02
    -26.897  0.0000E+00  0.6667E-02
    -26.779  0.0000E+00  0.6667E-02
    -26.660  0.0000E+00  0.6667E-02
    -26.541  0.0000E+00  0.6667E-02
    -26.423  0.0000E+00  0.6667E-02
    -26.304  0.0000E+00  0.6667E-02
    -26.185  0.0000E+00  0.6667E-02
    -26.067  0.0000E+00  0.6667E-02
    -25.948  0.0000E+00  0.6667E-02
    -25.829  0.0000E+00  0.6667E-02
    -25.711  0.0000E+00  0.6667E-02
    -25.592  0.0000E+00  0.6667E-02
    -25.473  0.0000E+00  0.6667E-02
    -25.355  0.0000E+00  0.6667E-02
    -25.236  0.0000E+00  0.6667E-02
    -25.117  0.0000E+00  0.6667E-02
    -24.999  0.0000E+00  0.6667E-02
    -24.880  0.0000E+00  0.6667E-02
    -24.761  0.0000E+00  0.6667E-02
    -24.643  0.0000E+00  0.6667E-02
    -24.524  0.0000E+00  0.6667E-02
    -24.405  0.0000E+00  0.6667E-02
    -24.287  0.0000E+00  0.6667E-02
    -24.168 -0.5381E-30  0.6667E-02
    -24.049 -0.3386E-22  0.6667E-02
    -23.931 -0.1207E-15  0.6667E-02
    -23.812 -0.2483E-10  0.6667E-02
    -23.693 -0.2810E-06  0.6667E-02
    -23.575 -0.1560E-03  0.6648E-02
    -23.456 -0.1693E-02  0.6447E-02
    -23.337  0.3377E-01  0.1045E-01
    -23.219  0.2624E-01  0.1357E-01
    -23.100 -0.1898E-02  0.1334E-01
    -22.981 -0.7959E-04  0.1333E-01
    -22.863 -0.9376E-07  0.1333E-01
    -22.744 -0.3089E-06  0.1333E-01
    -22.625 -0.1651E-03  0.1331E-01
    -22.507 -0.1644E-02  0.1312E-01
    -22.388  0.3440E-01  0.1720E-01
    -22.270  0.2556E-01  0.2023E-01
    -22.151 -0.1891E-02  0.2001E-01
    -22.032 -0.7476E-04  0.2000E-01
    -21.914 -0.8483E-07  0.2000E-01
    -21.795 -0.4853E-11  0.2000E-01
    -21.676 -0.1247E-16  0.2000E-01
    -21.558  0.0000E+00  0.2000E-01
    -21.439  0.0000E+00  0.2000E-01
    -21.320  0.0000E+00  0.2000E-01
    -21.202  0.0000E+00  0.2000E-01
    -21.083  0.0000E+00  0.2000E-01
    -20.964  0.0000E+00  0.2000E-01
    -20.846  0.0000E+00  0.2000E-01
    -20.727  0.0000E+00  0.2000E-01
    -20.608  0.0000E+00  0.2000E-01
    -20.490  0.0000E+00  0.2000E-01
    -20.371 -0.2475E-30  0.2000E-01
    -20.252 -0.1744E-22  0.2000E-01
    -20.134 -0.6839E-16  0.2000E-01
    -20.015 -0.1609E-10  0.2000E-01
    -19.896 -0.2048E-06  0.2000E-01
    -19.778 -0.1289E-03  0.1998E-01
    -19.659 -0.1814E-02  0.1977E-01
    -19.540  0.3162E-01  0.2352E-01
    -19.422  0.2850E-01  0.2690E-01
    -19.303 -0.1894E-02  0.2668E-01
    -19.184 -0.9760E-04  0.2667E-01
    -19.066 -0.1301E-06  0.2667E-01
    -18.947 -0.8668E-11  0.2667E-01
    -18.828 -0.3742E-16  0.2667E-01
    -18.710 -0.5371E-24  0.2667E-01
    -18.591 -0.3953E-17  0.2667E-01
    -18.472 -0.1609E-11  0.2667E-01
    -18.354 -0.3735E-07  0.2667E-01
    -18.235 -0.4437E-04  0.2666E-01
    -18.116 -0.1747E-02  0.2645E-01
    -17.998  0.2012E-01  0.2884E-01
    -17.879  0.3912E-01  0.3348E-01
    -17.760 -0.1007E-02  0.3336E-01
    -17.642 -0.2556E-03  0.3333E-01
    -17.523 -0.6511E-06  0.3333E-01
    -17.404 -0.7931E-10  0.3333E-01
    -17.286 -0.5239E-15  0.3333E-01
    -17.167 -0.4169E-16  0.3333E-01
    -17.048 -0.1050E-10  0.3333E-01
    -16.930 -0.1498E-06  0.3333E-01
    -16.811 -0.1064E-03  0.3332E-01
    -16.692 -0.1880E-02  0.3310E-01
    -16.574  0.2947E-01  0.3659E-01
    -16.455  0.3067E-01  0.4023E-01
    -16.336 -0.1849E-02  0.4001E-01
    -16.218 -0.1184E-03  0.4000E-01
    -16.099 -0.1783E-06  0.4000E-01
    -15.980 -0.1331E-10  0.4000E-01
    -15.862 -0.6237E-16  0.4000E-01
    -15.743 -0.7690E-15  0.4000E-01
    -15.624 -0.1068E-09  0.4000E-01
    -15.506 -0.8062E-06  0.4000E-01
    -15.387 -0.2888E-03  0.3997E-01
    -15.268 -0.7254E-03  0.3988E-01
    -15.150  0.4034E-01  0.4467E-01
    -15.031  0.1857E-01  0.4687E-01
    -14.912 -0.1684E-02  0.4667E-01
    -14.794 -0.6199E-03  0.4660E-01
    -14.675  0.2301E-02  0.4687E-01
    -14.556  0.4582E-01  0.5231E-01
    -14.438  0.9821E-02  0.5347E-01
    -14.319 -0.1168E-02  0.5333E-01
    -14.200 -0.1305E-04  0.5333E-01
    -14.082 -0.5832E-08  0.5333E-01
    -13.963 -0.1369E-12  0.5333E-01
    -13.844 -0.2862E-16  0.5333E-01
    -13.726 -0.7790E-11  0.5333E-01
    -13.607 -0.1203E-06  0.5333E-01
    -13.488 -0.9296E-04  0.5332E-01
    -13.370 -0.1899E-02  0.5310E-01
    -13.251  0.2795E-01  0.5641E-01
    -13.132  0.3214E-01  0.6023E-01
    -13.014 -0.1790E-02  0.6002E-01
    -12.895 -0.1364E-03  0.6000E-01
    -12.776 -0.3897E-03  0.5995E-01
    -12.658  0.2248E-03  0.5998E-01
    -12.539  0.4308E-01  0.6509E-01
    -12.421  0.1478E-01  0.6685E-01
    -12.302 -0.1953E-02  0.6661E-01
    -12.183  0.1027E-02  0.6674E-01
    -12.065  0.4451E-01  0.7202E-01
    -11.946  0.1245E-01  0.7349E-01
    -11.827 -0.1343E-02  0.7334E-01
    -11.709 -0.1870E-04  0.7333E-01
    -11.590 -0.1150E-07  0.7333E-01
    -11.471 -0.5208E-05  0.7333E-01
    -11.353 -0.7743E-03  0.7324E-01
    -11.234  0.4589E-02  0.7379E-01
    -11.115  0.4679E-01  0.7934E-01
    -10.997  0.6520E-02  0.8011E-01
    -10.878 -0.1068E-02  0.7998E-01
    -10.759 -0.1769E-02  0.7977E-01
    -10.641  0.3269E-01  0.8365E-01
    -10.522  0.2733E-01  0.8690E-01
    -10.403 -0.3744E-02  0.8645E-01
    -10.285  0.2294E-01  0.8917E-01
    -10.166  0.3666E-01  0.9352E-01
    -10.047 -0.1407E-02  0.9336E-01
     -9.929 -0.2627E-03  0.9333E-01
     -9.810 -0.1848E-02  0.9311E-01
     -9.691  0.2319E-01  0.9586E-01
     -9.573  0.3653E-01  0.1002E+00
     -9.454 -0.1580E-02  0.1000E+00
     -9.335 -0.2532E-02  0.9970E-01
     -9.217  0.3571E-01  0.1039E+00
     -9.098  0.7314E-01  0.1126E+00
     -8.979  0.5002E-01  0.1186E+00
     -8.861  0.1790E-01  0.1207E+00
     -8.742  0.4539E-01  0.1261E+00
     -8.623  0.5947E-02  0.1268E+00
     -8.505 -0.8838E-03  0.1267E+00
     -8.386 -0.6895E-05  0.1267E+00
     -8.267 -0.1444E-07  0.1267E+00
     -8.149 -0.2132E-04  0.1267E+00
     -8.030 -0.1408E-02  0.1265E+00
     -7.911  0.1349E-01  0.1281E+00
     -7.793  0.4389E-01  0.1333E+00
     -7.674 -0.2035E-03  0.1333E+00
     -7.555  0.5208E-02  0.1339E+00
     -7.437  0.4685E-01  0.1395E+00
     -7.318  0.5399E-02  0.1401E+00
     -7.199 -0.8390E-03  0.1400E+00
     -7.081 -0.6167E-05  0.1400E+00
     -6.962 -0.1936E-08  0.1400E+00
     -6.843 -0.3231E-13  0.1400E+00
     -6.725 -0.1179E-35  0.1400E+00
     -6.606 -0.4594E-27  0.1400E+00
     -6.487 -0.1046E-19  0.1400E+00
     -6.369 -0.1333E-13  0.1400E+00
     -6.250 -0.9800E-09  0.1400E+00
     -6.131 -0.3853E-05  0.1400E+00
     -6.013 -0.6680E-03  0.1399E+00
     -5.894  0.3302E-02  0.1403E+00
     -5.775  0.4642E-01  0.1458E+00
     -5.657  0.8193E-02  0.1468E+00
     -5.538 -0.1808E-02  0.1466E+00
     -5.419  0.4352E-02  0.1471E+00
     -5.301  0.4675E-01  0.1526E+00
     -5.182  0.6789E-02  0.1534E+00
     -5.063 -0.9467E-03  0.1533E+00
     -4.945 -0.8018E-05  0.1533E+00
     -4.826 -0.2842E-08  0.1533E+00
     -4.707 -0.2950E-07  0.1533E+00
     -4.589 -0.3810E-04  0.1533E+00
     -4.470 -0.1684E-02  0.1531E+00
     -4.351  0.1864E-01  0.1553E+00
     -4.233  0.4029E-01  0.1601E+00
     -4.114 -0.7382E-03  0.1600E+00
     -3.995 -0.2874E-03  0.1600E+00
     -3.877 -0.7991E-06  0.1600E+00
     -3.758 -0.1055E-09  0.1600E+00
     -3.639 -0.7610E-15  0.1600E+00
     -3.521  0.0000E+00  0.1600E+00
     -3.402  0.0000E+00  0.1600E+00
     -3.283  0.0000E+00  0.1600E+00
     -3.165  0.0000E+00  0.1600E+00
     -3.046  0.0000E+00  0.1600E+00
     -2.928  0.0000E+00  0.1600E+00
     -2.809  0.0000E+00  0.1600E+00
     -2.690  0.0000E+00  0.1600E+00
     -2.572  0.0000E+00  0.1600E+00
     -2.453  0.0000E+00  0.1600E+00
     -2.334  0.0000E+00  0.1600E+00
     -2.216  0.0000E+00  0.1600E+00
     -2.097  0.0000E+00  0.1600E+00
     -1.978  0.0000E+00  0.1600E+00
     -1.860  0.0000E+00  0.1600E+00
     -1.741  0.0000E+00  0.1600E+00
     -1.622  0.0000E+00  0.1600E+00
     -1.504 -0.1027E-29  0.1600E+00
     -1.385 -0.5875E-22  0.1600E+00
     -1.266 -0.1892E-15  0.1600E+00
     -1.148 -0.3556E-10  0.1600E+00
     -1.029 -0.3649E-06  0.1600E+00
     -0.910 -0.1823E-03  0.1600E+00
     -0.792 -0.1542E-02  0.1598E+00
     -0.673  0.3547E-01  0.1640E+00
     -0.554  0.2264E-01  0.1667E+00
     -0.436  0.1208E-01  0.1681E+00
     -0.317  0.7846E-01  0.1774E+00
     -0.198  0.2392E-01  0.1803E+00
     -0.080 -0.2233E-02  0.1800E+00
      0.039 -0.6529E-04  0.1800E+00
      0.158 -0.1826E-06  0.1800E+00
      0.276 -0.1122E-03  0.1800E+00
      0.395 -0.3526E-02  0.1796E+00
      0.514  0.4358E-01  0.1847E+00
      0.632  0.7505E-01  0.1936E+00
      0.751 -0.3639E-02  0.1932E+00
      0.870  0.1390E-01  0.1949E+00
      0.988  0.4334E-01  0.2000E+00
      1.107  0.3537E-03  0.2000E+00
      1.226 -0.7796E-03  0.2000E+00
      1.344  0.1020E-03  0.2000E+00
      1.463  0.4264E-01  0.2050E+00
      1.582  0.1317E-01  0.2066E+00
      1.700  0.3284E-01  0.2105E+00
      1.819  0.6739E-01  0.2185E+00
      1.938  0.1652E-01  0.2204E+00
      2.056  0.4433E-01  0.2257E+00
      2.175  0.7457E-02  0.2266E+00
      2.294  0.3268E-01  0.2305E+00
      2.412  0.3564E-01  0.2347E+00
      2.531  0.4350E-01  0.2399E+00
      2.650  0.1725E-02  0.2401E+00
      2.768 -0.5372E-03  0.2400E+00
      2.887 -0.2514E-05  0.2400E+00
      3.006 -0.5313E-09  0.2400E+00
      3.124 -0.6038E-14  0.2400E+00
      3.243  0.0000E+00  0.2400E+00
      3.362  0.0000E+00  0.2400E+00
      3.480  0.0000E+00  0.2400E+00
      3.599  0.0000E+00  0.2400E+00
      3.718  0.0000E+00  0.2400E+00
      3.836  0.0000E+00  0.2400E+00
      3.955  0.0000E+00  0.2400E+00
      4.074  0.0000E+00  0.2400E+00
      4.07358421    -31.52518329  301     -4.24298641      1.00000000
    -31.525  0.0000E+00  0.0000E+00  0.0000E+00  0.0000E+00  0.0000E+00  0.0000E+00  0.0000E+00  0.0000E+00  0.0000E+00
    -31.407  0.0000E+00  0.0000E+00  0.0000E+00  0.0000E+00  0.0000E+00  0.0000E+00  0.0000E+00  0.0000E+00  0.0000E+00
    -31.288  0.0000E+00  0.0000E+00  0.0000E+00  0.0000E+00  0.0000E+00  0.0000E+00  0.0000E+00  0.0000E+00  0.0000E+00
    -31.169  0.0000E+00  0.0000E+00  0.0000E+00  0.0000E+00  0.0000E+00  0.0000E+00  0.0000E+00  0.0000E+00  0.0000E+00
    -31.051  0.0000E+00  0.0000E+00  0.0000E+00  0.0000E+00  0.0000E+00  0.0000E+00  0.0000E+00  0.0000E+00  0.0000E+00
    -30.932  0.0000E+00  0.0000E+00  0.0000E+00  0.0000E+00  0.0000E+00  0.0000E+00  0.0000E+00  0.0000E+00  0.0000E+00
    -30.813 -0.3466E-38 -0.1351E-38 -0.3873E-39 -0.3805E-43  0.0000E+00  0.0000E+00  0.0000E+00  0.0000E+00  0.0000E+00
    -30.695 -0.1610E-29 -0.6278E-30 -0.1800E-30 -0.1768E-34  0.0000E+00  0.0000E+00  0.0000E+00  0.0000E+00  0.0000E+00
    -30.576 -0.4375E-22 -0.1706E-22 -0.4890E-23 -0.4804E-27  0.0000E+00  0.0000E+00  0.0000E+00  0.0000E+00  0.0000E+00
    -30.457 -0.6666E-16 -0.2599E-16 -0.7449E-17 -0.7319E-21  0.0000E+00  0.0000E+00  0.0000E+00  0.0000E+00  0.0000E+00
    -30.339 -0.5865E-11 -0.2287E-11 -0.6554E-12 -0.6439E-16  0.0000E+00  0.0000E+00  0.0000E+00  0.0000E+00  0.0000E+00
    -30.220 -0.2774E-07 -0.1082E-07 -0.3101E-08 -0.3046E-12  0.0000E+00  0.0000E+00  0.0000E+00  0.0000E+00  0.0000E+00
    -30.101 -0.5929E-05 -0.2312E-05 -0.6626E-06 -0.6510E-10  0.0000E+00  0.0000E+00  0.0000E+00  0.0000E+00  0.0000E+00
    -29.983  0.1981E-04  0.7724E-05  0.2214E-05  0.2175E-09  0.0000E+00  0.0000E+00  0.0000E+00  0.0000E+00  0.0000E+00
    -29.864  0.5010E-03  0.1953E-03  0.5599E-04  0.5500E-08  0.0000E+00  0.0000E+00  0.0000E+00  0.0000E+00  0.0000E+00
    -29.745  0.1191E-03  0.4643E-04  0.1331E-04  0.1308E-08  0.0000E+00  0.0000E+00  0.0000E+00  0.0000E+00  0.0000E+00
    -29.627 -0.1362E-04 -0.5310E-05 -0.1522E-05 -0.1495E-09  0.0000E+00  0.0000E+00  0.0000E+00  0.0000E+00  0.0000E+00
    -29.508 -0.1654E-06 -0.6448E-07 -0.1848E-07 -0.1816E-11  0.0000E+00  0.0000E+00  0.0000E+00  0.0000E+00  0.0000E+00
    -29.389 -0.7905E-10 -0.3082E-10 -0.8834E-11 -0.8679E-15  0.0000E+00  0.0000E+00  0.0000E+00  0.0000E+00  0.0000E+00
    -29.271 -0.1980E-14 -0.7720E-15 -0.2213E-15 -0.2174E-19  0.0000E+00  0.0000E+00  0.0000E+00  0.0000E+00  0.0000E+00
    -29.152  0.0000E+00  0.0000E+00  0.0000E+00  0.0000E+00  0.0000E+00  0.0000E+00  0.0000E+00  0.0000E+00  0.0000E+00
    -29.033  0.0000E+00  0.0000E+00  0.0000E+00  0.0000E+00  0.0000E+00  0.0000E+00  0.0000E+00  0.0000E+00  0.0000E+00
    -28.915  0.0000E+00  0.0000E+00  0.0000E+00  0.0000E+00  0.0000E+00  0.0000E+00  0.0000E+00  0.0000E+00  0.0000E+00
    -28.796  0.0000E+00  0.0000E+00  0.0000E+00  0.0000E+00  0.0000E+00  0.0000E+00  0.0000E+00  0.0000E+00  0.0000E+00
    -28.677  0.0000E+00  0.0000E+00  0.0000E+00  0.0000E+00  0.0000E+00  0.0000E+00  0.0000E+00  0.0000E+00  0.0000E+00
    -28.559  0.0000E+00  0.0000E+00  0.0000E+00  0.0000E+00  0.0000E+00  0.0000E+00  0.0000E+00  0.0000E+00  0.0000E+00
    -28.440  0.0000E+00  0.0000E+00  0.0000E+00  0.0000E+00  0.0000E+00  0.0000E+00  0.0000E+00  0.0000E+00  0.0000E+00
    -28.321  0.0000E+00  0.0000E+00  0.0000E+00  0.0000E+00  0.0000E+00  0.0000E+00  0.0000E+00  0.0000E+00  0.0000E+00
    -28.203  0.0000E+00  0.0000E+00  0.0000E+00  0.0000E+00  0.0000E+00  0.0000E+00  0.0000E+00  0.0000E+00  0.0000E+00
    -28.084  0.0000E+00  0.0000E+00  0.0000E+00  0.0000E+00  0.0000E+00  0.0000E+00  0.0000E+00  0.0000E+00  0.0000E+00
    -27.965  0.0000E+00  0.0000E+00  0.0000E+00  0.0000E+00  0.0000E+00  0.0000E+00  0.0000E+00  0.0000E+00  0.0000E+00
    -27.847  0.0000E+00  0.0000E+00  0.0000E+00  0.0000E+00  0.0000E+00  0.0000E+00  0.0000E+00  0.0000E+00  0.0000E+00
    -27.728  0.0000E+00  0.0000E+00  0.0000E+00  0.0000E+00  0.0000E+00  0.0000E+00  0.0000E+00  0.0000E+00  0.0000E+00
    -27.609  0.0000E+00  0.0000E+00  0.0000E+00  0.0000E+00  0.0000E+00  0.0000E+00  0.0000E+00  0.0000E+00  0.0000E+00
    -27.491  0.0000E+00  0.0000E+00  0.0000E+00  0.0000E+00  0.0000E+00  0.0000E+00  0.0000E+00  0.0000E+00  0.0000E+00
    -27.372  0.0000E+00  0.0000E+00  0.0000E+00  0.0000E+00  0.0000E+00  0.0000E+00  0.0000E+00  0.0000E+00  0.0000E+00
    -27.253  0.0000E+00  0.0000E+00  0.0000E+00  0.0000E+00  0.0000E+00  0.0000E+00  0.0000E+00  0.0000E+00  0.0000E+00
    -27.135  0.0000E+00  0.0000E+00  0.0000E+00  0.0000E+00  0.0000E+00  0.0000E+00  0.0000E+00  0.0000E+00  0.0000E+00
    -27.016  0.0000E+00  0.0000E+00  0.0000E+00  0.0000E+00  0.0000E+00  0.0000E+00  0.0000E+00  0.0000E+00  0.0000E+00
    -26.897  0.0000E+00  0.0000E+00  0.0000E+00  0.0000E+00  0.0000E+00  0.0000E+00  0.0000E+00  0.0000E+00  0.0000E+00
    -26.779  0.0000E+00  0.0000E+00  0.0000E+00  0.0000E+00  0.0000E+00  0.0000E+00  0.0000E+00  0.0000E+00  0.0000E+00
    -26.660  0.0000E+00  0.0000E+00  0.0000E+00  0.0000E+00  0.0000E+00  0.0000E+00  0.0000E+00  0.0000E+00  0.0000E+00
    -26.541  0.0000E+00  0.0000E+00  0.0000E+00  0.0000E+00  0.0000E+00  0.0000E+00  0.0000E+00  0.0000E+00  0.0000E+00
    -26.423  0.0000E+00  0.0000E+00  0.0000E+00  0.0000E+00  0.0000E+00  0.0000E+00  0.0000E+00  0.0000E+00  0.0000E+00
    -26.304  0.0000E+00  0.0000E+00  0.0000E+00  0.0000E+00  0.0000E+00  0.0000E+00  0.0000E+00  0.0000E+00  0.0000E+00
    -26.185  0.0000E+00  0.0000E+00  0.0000E+00  0.0000E+00  0.0000E+00  0.0000E+00  0.0000E+00  0.0000E+00  0.0000E+00
    -26.067  0.0000E+00  0.0000E+00  0.0000E+00  0.0000E+00  0.0000E+00  0.0000E+00  0.0000E+00  0.0000E+00  0.0000E+00
    -25.948  0.0000E+00  0.0000E+00  0.0000E+00  0.0000E+00  0.0000E+00  0.0000E+00  0.0000E+00  0.0000E+00  0.0000E+00
    -25.829  0.0000E+00  0.0000E+00  0.0000E+00  0.0000E+00  0.0000E+00  0.0000E+00  0.0000E+00  0.0000E+00  0.0000E+00
    -25.711  0.0000E+00  0.0000E+00  0.0000E+00  0.0000E+00  0.0000E+00  0.0000E+00  0.0000E+00  0.0000E+00  0.0000E+00
    -25.592  0.0000E+00  0.0000E+00  0.0000E+00  0.0000E+00  0.0000E+00  0.0000E+00  0.0000E+00  0.0000E+00  0.0000E+00
    -25.473  0.0000E+00  0.0000E+00  0.0000E+00  0.0000E+00  0.0000E+00  0.0000E+00  0.0000E+00  0.0000E+00  0.0000E+00
    -25.355  0.0000E+00  0.0000E+00  0.0000E+00  0.0000E+00  0.0000E+00  0.0000E+00  0.0000E+00  0.0000E+00  0.0000E+00
    -25.236  0.0000E+00  0.0000E+00  0.0000E+00  0.0000E+00  0.0000E+00  0.0000E+00  0.0000E+00  0.0000E+00  0.0000E+00
    -25.117  0.0000E+00  0.0000E+00  0.0000E+00  0.0000E+00  0.0000E+00  0.0000E+00  0.0000E+00  0.0000E+00  0.0000E+00
    -24.999  0.0000E+00  0.0000E+00  0.0000E+00  0.0000E+00  0.0000E+00  0.0000E+00  0.0000E+00  0.0000E+00  0.0000E+00
    -24.880  0.0000E+00  0.0000E+00  0.0000E+00  0.0000E+00  0.0000E+00  0.0000E+00  0.0000E+00  0.0000E+00  0.0000E+00
    -24.761  0.0000E+00  0.0000E+00  0.0000E+00  0.0000E+00  0.0000E+00  0.0000E+00  0.0000E+00  0.0000E+00  0.0000E+00
    -24.643  0.0000E+00  0.0000E+00  0.0000E+00  0.0000E+00  0.0000E+00  0.0000E+00  0.0000E+00  0.0000E+00  0.0000E+00
    -24.524  0.0000E+00  0.0000E+00  0.0000E+00  0.0000E+00  0.0000E+00  0.0000E+00  0.0000E+00  0.0000E+00  0.0000E+00
    -24.405  0.0000E+00  0.0000E+00  0.0000E+00  0.0000E+00  0.0000E+00  0.0000E+00  0.0000E+00  0.0000E+00  0.0000E+00
    -24.287  0.0000E+00  0.0000E+00  0.0000E+00  0.0000E+00  0.0000E+00  0.0000E+00  0.0000E+00  0.0000E+00  0.0000E+00
    -24.168 -0.3767E-31 -0.8756E-32 -0.7914E-33 -0.6504E-34  0.0000E+00  0.0000E+00  0.0000E+00  0.0000E+00  0.0000E+00
    -24.049 -0.2370E-23 -0.5510E-24 -0.4980E-25 -0.4092E-26  0.0000E+00  0.0000E+00  0.0000E+00  0.0000E+00  0.0000E+00
    -23.931 -0.8453E-17 -0.1965E-17 -0.1776E-18 -0.1459E-19  0.0000E+00  0.0000E+00  0.0000E+00  0.0000E+00  0.0000E+00
    -23.812 -0.1738E-11 -0.4040E-12 -0.3652E-13 -0.3001E-14  0.0000E+00  0.0000E+00  0.0000E+00  0.0000E+00  0.0000E+00