   16   16  300    1
  0.6439303E+02  0.7759100E-09  0.1173340E-08  0.1131680E-08  0.1000000E-14
   500.000000000000     
  CAR 
 Cluster                                 
     48      1     36
 
  0.0000000E+00  0.0000000E+00  0.0000000E+00  0.1000000E+01
      1        -29.907057   1.000000
      2        -23.345548   1.000000
      3        -22.397677   1.000000
      4        -19.543604   1.000000
      5        -17.976614   1.000000
      6        -16.572419   1.000000
      7        -15.174175   1.000000
      8        -14.602244   1.000000
      9        -13.246669   1.000000
     10        -12.572268   1.000000
     11        -12.103335   1.000000
     12        -11.171083   1.000000
     13        -10.646248   1.000000
     14        -10.269759   1.000000
     15         -9.676784   1.000000
     16         -9.223982   1.000000
     17         -9.145638   1.000000
     18         -9.014225   1.000000
     19         -8.799709   1.000000
     20         -7.875125   1.000000
     21         -7.496447   1.000000
     22         -5.825936   1.000000
     23         -5.355727   1.000000
     24         -4.327175   1.000000
     25         -0.684966   0.000000
     26         -0.404076   0.000000
     27         -0.329935   0.000000
     28          0.522125   0.000000
     29          0.540530   0.000000
     30          0.903771   0.000000
     31          1.430861   0.000000
     32          1.690839   0.000000
     33          1.788028   0.000000
     34          2.008427   0.000000
     35          2.282685   0.000000
     36          2.455458   0.000000
