       N       E                     dE             d eps       ncg     rms          rms(c)
RMM:   1     0.787816605127E+03    0.78782E+03   -0.10726E+04    36   0.783E+02
RMM:   2     0.406106291608E+03   -0.38171E+03   -0.43830E+03    36   0.175E+02
RMM:   3     0.243906162492E+03   -0.16220E+03   -0.25758E+03    36   0.140E+02
RMM:   4     0.740746790272E+02   -0.16983E+03   -0.17447E+03    36   0.140E+02
RMM:   5    -0.787459990786E+01   -0.81949E+02   -0.81495E+02    36   0.107E+02
RMM:   6    -0.692797602484E+02   -0.61405E+02   -0.47394E+02    36   0.801E+01
RMM:   7    -0.942097156285E+02   -0.24930E+02   -0.15475E+02    36   0.499E+01
RMM:   8    -0.104461083991E+03   -0.10251E+02   -0.86572E+01    36   0.322E+01
RMM:   9    -0.107996647298E+03   -0.35356E+01   -0.31025E+01    36   0.192E+01
RMM:  10    -0.109167778219E+03   -0.11711E+01   -0.99861E+00    36   0.112E+01
RMM:  11    -0.109553875420E+03   -0.38610E+00   -0.36305E+00    36   0.672E+00
RMM:  12    -0.109728734151E+03   -0.17486E+00   -0.13843E+00    36   0.412E+00
RMM:  13    -0.109788667962E+03   -0.59934E-01   -0.55589E-01    36   0.252E+00
RMM:  14    -0.109813773924E+03   -0.25106E-01   -0.23226E-01    36   0.159E+00
RMM:  15    -0.109827436826E+03   -0.13663E-01   -0.13272E-01    79   0.998E-01
RMM:  16    -0.109831734738E+03   -0.42979E-02   -0.41424E-02    82   0.396E-01
RMM:  17    -0.109831980709E+03   -0.24597E-03   -0.14515E-03    76   0.115E-01
RMM:  18    -0.109831997903E+03   -0.17194E-04   -0.15317E-04    57   0.294E-02
RMM:  19    -0.109831999019E+03   -0.11159E-05   -0.95128E-06    49   0.122E-02
RMM:  20    -0.109831999495E+03   -0.47658E-06   -0.47060E-06    44   0.723E-03    0.169E+01
RMM:  21    -0.102317533785E+03    0.75145E+01   -0.13837E+01   120   0.135E+01    0.918E+00
RMM:  22    -0.100642820043E+03    0.16747E+01   -0.25200E+00   120   0.551E+00    0.417E+00
RMM:  23    -0.100333717421E+03    0.30910E+00   -0.46149E-01   120   0.244E+00    0.120E+00
RMM:  24    -0.100298135874E+03    0.35582E-01   -0.26980E-02   100   0.749E-01    0.357E-01
RMM:  25    -0.100291280562E+03    0.68553E-02   -0.41731E-03    80   0.290E-01    0.185E-01
RMM:  26    -0.100293541712E+03   -0.22612E-02   -0.13134E-02    91   0.358E-01    0.997E-02
RMM:  27    -0.100300360767E+03   -0.68191E-02   -0.28140E-03    80   0.181E-01    0.540E-02
RMM:  28    -0.100305622500E+03   -0.52617E-02   -0.79193E-04    72   0.992E-02    0.284E-02
RMM:  29    -0.100310440173E+03   -0.48177E-02   -0.77263E-04    73   0.830E-02    0.197E-02
RMM:  30    -0.100313138737E+03   -0.26986E-02   -0.46101E-04    73   0.645E-02    0.953E-03
RMM:  31    -0.100313722246E+03   -0.58351E-03   -0.12290E-04    65   0.311E-02    0.602E-03
RMM:  32    -0.100313990067E+03   -0.26782E-03   -0.34960E-05    59   0.189E-02    0.254E-03
RMM:  33    -0.100314078558E+03   -0.88491E-04   -0.19332E-05    51   0.116E-02    0.168E-03
RMM:  34    -0.100314129699E+03   -0.51140E-04   -0.10337E-05    46   0.816E-03    0.101E-03
RMM:  35    -0.100314142997E+03   -0.13298E-04   -0.34420E-06    39   0.531E-03    0.419E-04
RMM:  36    -0.100314148283E+03   -0.52867E-05   -0.15916E-06    34   0.390E-03
      1 T=   500. E= -.99345321E+02 F= -.10031415E+03 E0= -.10031608E+03  EK= 0.96883E+00 SP= 0.00E+00 SK= 0.00E+00
       N       E                     dE             d eps       ncg     rms          rms(c)
RMM:   1    -0.100209169559E+03    0.10497E+00   -0.51452E+00    72   0.126E+01    0.643E-01
RMM:   2    -0.100230780113E+03   -0.21611E-01   -0.25517E-01    72   0.330E+00    0.407E-01
RMM:   3    -0.100233418124E+03   -0.26380E-02   -0.40266E-02    73   0.114E+00    0.233E-01
RMM:   4    -0.100233753738E+03   -0.33561E-03   -0.82342E-03    75   0.472E-01    0.671E-02
RMM:   5    -0.100233950351E+03   -0.19661E-03   -0.17350E-03    77   0.217E-01    0.444E-02
RMM:   6    -0.100234013978E+03   -0.63627E-04   -0.28647E-04    76   0.860E-02    0.192E-02
RMM:   7    -0.100234047127E+03   -0.33149E-04   -0.78013E-05    66   0.441E-02    0.974E-03
RMM:   8    -0.100234075036E+03   -0.27910E-04   -0.20791E-05    53   0.210E-02    0.385E-03
RMM:   9    -0.100234090431E+03   -0.15394E-04   -0.45923E-06    48   0.986E-03    0.182E-03
RMM:  10    -0.100234111817E+03   -0.21386E-04   -0.37401E-06    47   0.733E-03    0.151E-03
RMM:  11    -0.100234115925E+03   -0.41082E-05   -0.11266E-06    42   0.431E-03
      2 T=   461. E= -.99340121E+02 F= -.10023412E+03 E0= -.10023605E+03  EK= 0.89401E+00 SP= -.15E-04 SK= 0.20E-07
       N       E                     dE             d eps       ncg     rms          rms(c)
RMM:   1    -0.100065790122E+03    0.16832E+00   -0.18022E-01    72   0.256E+00    0.105E-01
RMM:   2    -0.100066658746E+03   -0.86862E-03   -0.99468E-03    72   0.569E-01    0.762E-02
RMM:   3    -0.100066830454E+03   -0.17171E-03   -0.21968E-03    75   0.213E-01    0.564E-02
RMM:   4    -0.100066836362E+03   -0.59082E-05   -0.29210E-04    72   0.857E-02    0.241E-02
RMM:   5    -0.100066849932E+03   -0.13569E-04   -0.91752E-05    70   0.473E-02    0.850E-03
RMM:   6    -0.100066851185E+03   -0.12539E-05   -0.24661E-05    52   0.225E-02
      3 T=   380. E= -.99331883E+02 F= -.10006685E+03 E0= -.10006878E+03  EK= 0.73649E+00 SP= -.18E-02 SK= 0.25E-03
       N       E                     dE             d eps       ncg     rms          rms(c)
RMM:   1    -0.999352326000E+02    0.13162E+00   -0.72127E-02    72   0.196E+00    0.836E-02
RMM:   2    -0.999355832752E+02   -0.35068E-03   -0.34266E-03    72   0.348E-01    0.545E-02
RMM:   3    -0.999356592431E+02   -0.75968E-04   -0.63203E-04    75   0.132E-01    0.320E-02
RMM:   4    -0.999356765893E+02   -0.17346E-04   -0.10970E-04    69   0.558E-02    0.760E-03
RMM:   5    -0.999356808548E+02   -0.42655E-05   -0.29706E-05    54   0.263E-02    0.497E-03
RMM:   6    -0.999356820775E+02   -0.12227E-05   -0.64530E-06    48   0.111E-02
      4 T=   316. E= -.99329209E+02 F= -.99935682E+02 E0= -.99937615E+02  EK= 0.61296E+00 SP= -.90E-02 SK= 0.25E-02
       N       E                     dE             d eps       ncg     rms          rms(c)
RMM:   1    -0.998850363042E+02    0.50645E-01   -0.18134E-02    72   0.953E-01    0.369E-02
RMM:   2    -0.998851477975E+02   -0.11149E-03   -0.10954E-03    73   0.198E-01    0.261E-02
RMM:   3    -0.998851795579E+02   -0.31760E-04   -0.23186E-04    76   0.773E-02    0.146E-02
RMM:   4    -0.998851909229E+02   -0.11365E-04   -0.46970E-05    57   0.321E-02    0.511E-03
RMM:   5    -0.998851960052E+02   -0.50823E-05   -0.78213E-06    47   0.142E-02    0.186E-03
RMM:   6    -0.998852003602E+02   -0.43550E-05   -0.25775E-06    47   0.769E-03
      5 T=   293. E= -.99333290E+02 F= -.99885200E+02 E0= -.99887133E+02  EK= 0.56785E+00 SP= -.25E-01 SK= 0.86E-02
       N       E                     dE             d eps       ncg     rms          rms(c)
RMM:   1    -0.998584658201E+02    0.26730E-01   -0.24231E-02    72   0.989E-01    0.563E-02
RMM:   2    -0.998585597397E+02   -0.93920E-04   -0.12657E-03    72   0.212E-01    0.392E-02
RMM:   3    -0.998585679135E+02   -0.81739E-05   -0.26231E-04    74   0.791E-02    0.161E-02
RMM:   4    -0.998585748231E+02   -0.69096E-05   -0.48731E-05    63   0.324E-02    0.892E-03
RMM:   5    -0.998585785698E+02   -0.37466E-05   -0.96840E-06    47   0.152E-02    0.244E-03
RMM:   6    -0.998585804257E+02   -0.18559E-05   -0.22674E-06    47   0.745E-03
      6 T=   284. E= -.99338238E+02 F= -.99858580E+02 E0= -.99860513E+02  EK= 0.55115E+00 SP= -.50E-01 SK= 0.19E-01
       N       E                     dE             d eps       ncg     rms          rms(c)
RMM:   1    -0.997853445187E+02    0.73234E-01   -0.43885E-02    72   0.127E+00    0.748E-02
RMM:   2    -0.997855209264E+02   -0.17641E-03   -0.24274E-03    73   0.291E-01    0.512E-02
RMM:   3    -0.997855205874E+02    0.33903E-06   -0.39528E-04    73   0.106E-01    0.249E-02
RMM:   4    -0.997855249586E+02   -0.43712E-05   -0.72071E-05    68   0.440E-02    0.114E-02
RMM:   5    -0.997855273891E+02   -0.24305E-05   -0.19767E-05    51   0.224E-02    0.477E-03
RMM:   6    -0.997855282527E+02   -0.86368E-06   -0.41212E-06    47   0.994E-03
      7 T=   256. E= -.99338946E+02 F= -.99785528E+02 E0= -.99787461E+02  EK= 0.49725E+00 SP= -.85E-01 SK= 0.34E-01
       N       E                     dE             d eps       ncg     rms          rms(c)
RMM:   1    -0.996668465632E+02    0.11868E+00   -0.71320E-02    72   0.154E+00    0.920E-02
RMM:   2    -0.996671190524E+02   -0.27249E-03   -0.38627E-03    72   0.396E-01    0.604E-02
RMM:   3    -0.996671443352E+02   -0.25283E-04   -0.69327E-04    74   0.147E-01    0.299E-02
RMM:   4    -0.996671504937E+02   -0.61585E-05   -0.10253E-04    71   0.569E-02    0.162E-02
RMM:   5    -0.996671553394E+02   -0.48457E-05   -0.33004E-05    59   0.303E-02    0.492E-03
RMM:   6    -0.996671567902E+02   -0.14508E-05   -0.80305E-06    48   0.145E-02
      8 T=   210. E= -.99333858E+02 F= -.99667157E+02 E0= -.99669089E+02  EK= 0.40639E+00 SP= -.13E+00 SK= 0.59E-01
       N       E                     dE             d eps       ncg     rms          rms(c)
RMM:   1    -0.995909600908E+02    0.76195E-01   -0.95242E-02    72   0.176E+00    0.108E-01
RMM:   2    -0.995912954601E+02   -0.33537E-03   -0.50768E-03    72   0.440E-01    0.761E-02
RMM:   3    -0.995912926068E+02    0.28533E-05   -0.95022E-04    73   0.166E-01    0.271E-02
RMM:   4    -0.995913040229E+02   -0.11416E-04   -0.17875E-04    76   0.676E-02    0.161E-02
RMM:   5    -0.995913069172E+02   -0.28943E-05   -0.45689E-05    62   0.338E-02    0.486E-03
RMM:   6    -0.995913081343E+02   -0.12172E-05   -0.97203E-06    48   0.159E-02
      9 T=   185. E= -.99328176E+02 F= -.99591308E+02 E0= -.99593241E+02  EK= 0.35965E+00 SP= -.19E+00 SK= 0.96E-01
       N       E                     dE             d eps       ncg     rms          rms(c)
RMM:   1    -0.996356995496E+02   -0.44393E-01   -0.63365E-02    72   0.151E+00    0.103E-01
RMM:   2    -0.996358756342E+02   -0.17608E-03   -0.34571E-03    73   0.337E-01    0.714E-02
RMM:   3    -0.996358642194E+02    0.11415E-04   -0.71870E-04    72   0.136E-01    0.257E-02
RMM:   4    -0.996358722686E+02   -0.80492E-05   -0.11779E-04    73   0.545E-02    0.171E-02
RMM:   5    -0.996358765028E+02   -0.42342E-05   -0.27342E-05    57   0.276E-02    0.427E-03
RMM:   6    -0.996358786553E+02   -0.21525E-05   -0.65925E-06    47   0.128E-02
     10 T=   222. E= -.99330945E+02 F= -.99635879E+02 E0= -.99637811E+02  EK= 0.43108E+00 SP= -.27E+00 SK= 0.14E+00
       N       E                     dE             d eps       ncg     rms          rms(c)
RMM:   1    -0.997446197091E+02   -0.10874E+00   -0.33457E-02    72   0.112E+00    0.729E-02
RMM:   2    -0.997447298387E+02   -0.11013E-03   -0.20778E-03    73   0.264E-01    0.508E-02
RMM:   3    -0.997447447781E+02   -0.14939E-04   -0.48746E-04    72   0.114E-01    0.221E-02
RMM:   4    -0.997447500478E+02   -0.52697E-05   -0.92163E-05    65   0.492E-02    0.166E-02
RMM:   5    -0.997447553849E+02   -0.53370E-05   -0.24251E-05    54   0.244E-02    0.369E-03
RMM:   6    -0.997447564385E+02   -0.10537E-05   -0.62326E-06    47   0.120E-02
     11 T=   298. E= -.99340467E+02 F= -.99744756E+02 E0= -.99746689E+02  EK= 0.57697E+00 SP= -.36E+00 SK= 0.18E+00
       N       E                     dE             d eps       ncg     rms          rms(c)
RMM:   1    -0.997805431991E+02   -0.35788E-01   -0.57602E-02    72   0.152E+00    0.795E-02
RMM:   2    -0.997807949390E+02   -0.25174E-03   -0.34677E-03    72   0.344E-01    0.571E-02
RMM:   3    -0.997808236651E+02   -0.28726E-04   -0.70838E-04    73   0.136E-01    0.291E-02
RMM:   4    -0.997808375245E+02   -0.13859E-04   -0.13169E-04    73   0.564E-02    0.166E-02
RMM:   5    -0.997808461931E+02   -0.86685E-05   -0.34138E-05    58   0.283E-02    0.442E-03
RMM:   6    -0.997808488341E+02   -0.26411E-05   -0.64541E-06    47   0.119E-02
     12 T=   348. E= -.99345398E+02 F= -.99780849E+02 E0= -.99782781E+02  EK= 0.67411E+00 SP= -.45E+00 SK= 0.21E+00
       N       E                     dE             d eps       ncg     rms          rms(c)
RMM:   1    -0.996935344064E+02    0.87312E-01   -0.89874E-02    72   0.180E+00    0.893E-02
RMM:   2    -0.996939416906E+02   -0.40728E-03   -0.52908E-03    72   0.434E-01    0.611E-02
RMM:   3    -0.996940090936E+02   -0.67403E-04   -0.10696E-03    73   0.162E-01    0.364E-02
RMM:   4    -0.996940196570E+02   -0.10563E-04   -0.17232E-04    73   0.664E-02    0.159E-02
RMM:   5    -0.996940275952E+02   -0.79382E-05   -0.49815E-05    65   0.345E-02    0.510E-03
RMM:   6    -0.996940306038E+02   -0.30086E-05   -0.11914E-05    49   0.164E-02
     13 T=   344. E= -.99341835E+02 F= -.99694031E+02 E0= -.99695963E+02  EK= 0.66634E+00 SP= -.56E+00 SK= 0.24E+00
       N       E                     dE             d eps       ncg     rms          rms(c)
RMM:   1    -0.995646449935E+02    0.12938E+00   -0.10378E-01    72   0.189E+00    0.105E-01
RMM:   2    -0.995650693831E+02   -0.42439E-03   -0.52961E-03    72   0.455E-01    0.717E-02
RMM:   3    -0.995651212098E+02   -0.51827E-04   -0.97101E-04    75   0.162E-01    0.318E-02
RMM:   4    -0.995651298645E+02   -0.86548E-05   -0.16297E-04    73   0.655E-02    0.106E-02
RMM:   5    -0.995651336904E+02   -0.38259E-05   -0.40981E-05    60   0.311E-02    0.623E-03
RMM:   6    -0.995651354257E+02   -0.17353E-05   -0.93815E-06    49   0.145E-02
     14 T=   320. E= -.99334954E+02 F= -.99565135E+02 E0= -.99567068E+02  EK= 0.61950E+00 SP= -.67E+00 SK= 0.28E+00
       N       E                     dE             d eps       ncg     rms          rms(c)
RMM:   1    -0.995039931115E+02    0.61141E-01   -0.79207E-02    72   0.180E+00    0.956E-02
RMM:   2    -0.995043335042E+02   -0.34039E-03   -0.41702E-03    72   0.389E-01    0.671E-02
RMM:   3    -0.995043789687E+02   -0.45464E-04   -0.83050E-04    74   0.146E-01    0.294E-02
RMM:   4    -0.995043946494E+02   -0.15681E-04   -0.14614E-04    75   0.593E-02    0.125E-02
RMM:   5    -0.995044014963E+02   -0.68469E-05   -0.33052E-05    58   0.280E-02    0.504E-03
RMM:   6    -0.995044056302E+02   -0.41339E-05   -0.76635E-06    48   0.128E-02
     15 T=   329. E= -.99333850E+02 F= -.99504406E+02 E0= -.99506338E+02  EK= 0.63696E+00 SP= -.79E+00 SK= 0.32E+00
       N       E                     dE             d eps       ncg     rms          rms(c)
RMM:   1    -0.995176520725E+02   -0.13251E-01   -0.50069E-02    72   0.146E+00    0.701E-02
RMM:   2    -0.995178670694E+02   -0.21500E-03   -0.27472E-03    72   0.334E-01    0.445E-02
RMM:   3    -0.995179248673E+02   -0.57798E-04   -0.61811E-04    74   0.129E-01    0.250E-02
RMM:   4    -0.995179386529E+02   -0.13786E-04   -0.13031E-04    73   0.529E-02    0.118E-02
RMM:   5    -0.995179431449E+02   -0.44919E-05   -0.18542E-05    52   0.232E-02    0.372E-03
RMM:   6    -0.995179447304E+02   -0.15855E-05   -0.45870E-06    47   0.104E-02
     16 T=   379. E= -.99339490E+02 F= -.99517945E+02 E0= -.99519877E+02  EK= 0.73578E+00 SP= -.92E+00 SK= 0.36E+00
       N       E                     dE             d eps       ncg     rms          rms(c)
RMM:   1    -0.995235776155E+02   -0.56345E-02   -0.10069E-01    72   0.193E+00    0.122E-01
RMM:   2    -0.995239500753E+02   -0.37246E-03   -0.63523E-03    74   0.449E-01    0.839E-02
RMM:   3    -0.995239432898E+02    0.67855E-05   -0.11755E-03    72   0.178E-01    0.386E-02
RMM:   4    -0.995239602684E+02   -0.16979E-04   -0.22032E-04    74   0.712E-02    0.242E-02
RMM:   5    -0.995239680390E+02   -0.77706E-05   -0.58437E-05    66   0.380E-02    0.660E-03
RMM:   6    -0.995239689064E+02   -0.86736E-06   -0.16328E-05    49   0.202E-02
     17 T=   438. E= -.99343281E+02 F= -.99523969E+02 E0= -.99525902E+02  EK= 0.84935E+00 SP= -.10E+01 SK= 0.38E+00
       N       E                     dE             d eps       ncg     rms          rms(c)
RMM:   1    -0.994766248443E+02    0.47343E-01   -0.16041E-01    72   0.238E+00    0.158E-01
RMM:   2    -0.994771689165E+02   -0.54407E-03   -0.98030E-03    74   0.554E-01    0.109E-01
RMM:   3    -0.994771350308E+02    0.33886E-04   -0.20051E-03    72   0.228E-01    0.433E-02
RMM:   4    -0.994771518697E+02   -0.16839E-04   -0.34587E-04    76   0.915E-02    0.317E-02
RMM:   5    -0.994771624377E+02   -0.10568E-04   -0.96106E-05    68   0.476E-02    0.819E-03
RMM:   6    -0.994771639749E+02   -0.15373E-05   -0.29665E-05    54   0.252E-02
     18 T=   479. E= -.99345009E+02 F= -.99477164E+02 E0= -.99479097E+02  EK= 0.92851E+00 SP= -.12E+01 SK= 0.39E+00
       N       E                     dE             d eps       ncg     rms          rms(c)
RMM:   1    -0.993757550100E+02    0.10141E+00   -0.13593E-01    72   0.228E+00    0.116E-01
RMM:   2    -0.993763392633E+02   -0.58425E-03   -0.70563E-03    72   0.524E-01    0.801E-02
RMM:   3    -0.993764235265E+02   -0.84263E-04   -0.13950E-03    74   0.198E-01    0.312E-02
RMM:   4    -0.993764461067E+02   -0.22580E-04   -0.25959E-04    76   0.782E-02    0.158E-02
RMM:   5    -0.993764519668E+02   -0.58601E-05   -0.55382E-05    64   0.378E-02    0.516E-03
RMM:   6    -0.993764538442E+02   -0.18774E-05   -0.10446E-05    48   0.164E-02
     19 T=   497. E= -.99344795E+02 F= -.99376454E+02 E0= -.99378386E+02  EK= 0.96451E+00 SP= -.13E+01 SK= 0.39E+00
       N       E                     dE             d eps       ncg     rms          rms(c)
RMM:   1    -0.992656651466E+02    0.11079E+00   -0.19608E-01    72   0.264E+00    0.162E-01
RMM:   2    -0.992662816194E+02   -0.61647E-03   -0.10275E-02    72   0.620E-01    0.112E-01
RMM:   3    -0.992663540646E+02   -0.72445E-04   -0.22772E-03    73   0.240E-01    0.397E-02
RMM:   4    -0.992663739043E+02   -0.19840E-04   -0.36476E-04    73   0.954E-02    0.240E-02
RMM:   5    -0.992663839469E+02   -0.10043E-04   -0.10239E-04    70   0.490E-02    0.794E-03
RMM:   6    -0.992663875479E+02   -0.36010E-05   -0.16720E-05    50   0.200E-02
     20 T=   517. E= -.99336806E+02 F= -.99266388E+02 E0= -.99268320E+02  EK= 0.10016E+01 SP= -.15E+01 SK= 0.38E+00
       N       E                     dE             d eps       ncg     rms          rms(c)
RMM:   1    -0.992643840348E+02    0.19999E-02   -0.26288E-01    72   0.317E+00    0.221E-01
RMM:   2    -0.992648484775E+02   -0.46444E-03   -0.14222E-02    73   0.695E-01    0.147E-01
RMM:   3    -0.992648853855E+02   -0.36908E-04   -0.38030E-03    73   0.301E-01    0.600E-02
RMM:   4    -0.992648808862E+02    0.44993E-05   -0.55729E-04    73   0.124E-01    0.432E-02
RMM:   5    -0.992649057824E+02   -0.24896E-04   -0.16133E-04    71   0.631E-02    0.104E-02
RMM:   6    -0.992649098935E+02   -0.41111E-05   -0.41488E-05    59   0.306E-02
     21 T=   593. E= -.99335274E+02 F= -.99264910E+02 E0= -.99266843E+02  EK= 0.11493E+01 SP= -.16E+01 SK= 0.37E+00
       N       E                     dE             d eps       ncg     rms          rms(c)
RMM:   1    -0.993687465786E+02   -0.10384E+00   -0.13667E-01    72   0.246E+00    0.135E-01
RMM:   2    -0.993693401207E+02   -0.59354E-03   -0.79638E-03    73   0.515E-01    0.910E-02
RMM:   3    -0.993695284693E+02   -0.18835E-03   -0.18993E-03    73   0.219E-01    0.378E-02
RMM:   4    -0.993695530067E+02   -0.24537E-04   -0.33917E-04    76   0.885E-02    0.248E-02
RMM:   5    -0.993695710604E+02   -0.18054E-04   -0.90598E-05    68   0.456E-02    0.690E-03
RMM:   6    -0.993695735618E+02   -0.25014E-05   -0.21243E-05    52   0.220E-02
     22 T=   728. E= -.99350022E+02 F= -.99369574E+02 E0= -.99371506E+02  EK= 0.14117E+01 SP= -.17E+01 SK= 0.33E+00
       N       E                     dE             d eps       ncg     rms          rms(c)
RMM:   1    -0.993906638422E+02   -0.21093E-01   -0.16907E-01    72   0.282E+00    0.148E-01
RMM:   2    -0.993913799576E+02   -0.71612E-03   -0.90013E-03    73   0.540E-01    0.101E-01
RMM:   3    -0.993915149683E+02   -0.13501E-03   -0.18705E-03    74   0.218E-01    0.465E-02
RMM:   4    -0.993915450222E+02   -0.30054E-04   -0.33018E-04    77   0.876E-02    0.222E-02
RMM:   5    -0.993915575267E+02   -0.12505E-04   -0.66731E-05    67   0.421E-02    0.615E-03
RMM:   6    -0.993915615354E+02   -0.40086E-05   -0.15121E-05    49   0.200E-02
     23 T=   831. E= -.99362638E+02 F= -.99391562E+02 E0= -.99393494E+02  EK= 0.16115E+01 SP= -.18E+01 SK= 0.25E+00
       N       E                     dE             d eps       ncg     rms          rms(c)
RMM:   1    -0.992110928159E+02    0.18046E+00   -0.21627E-01    72   0.307E+00    0.154E-01
RMM:   2    -0.992120047644E+02   -0.91195E-03   -0.11421E-02    72   0.629E-01    0.107E-01
RMM:   3    -0.992121651146E+02   -0.16035E-03   -0.23029E-03    74   0.244E-01    0.575E-02
RMM:   4    -0.992121853115E+02   -0.20197E-04   -0.33758E-04    73   0.991E-02    0.204E-02
RMM:   5    -0.992122013219E+02   -0.16010E-04   -0.90625E-05    69   0.498E-02    0.783E-03
RMM:   6    -0.992122075572E+02   -0.62353E-05   -0.19775E-05    50   0.215E-02
     24 T=   830. E= -.99360900E+02 F= -.99212208E+02 E0= -.99214140E+02  EK= 0.16097E+01 SP= -.19E+01 SK= 0.18E+00
       N       E                     dE             d eps       ncg     rms          rms(c)
RMM:   1    -0.989210882754E+02    0.29111E+00   -0.24493E-01    72   0.297E+00    0.176E-01
RMM:   2    -0.989219518227E+02   -0.86355E-03   -0.12474E-02    72   0.675E-01    0.119E-01
RMM:   3    -0.989221038560E+02   -0.15203E-03   -0.31048E-03    75   0.257E-01    0.440E-02
RMM:   4    -0.989221304917E+02   -0.26636E-04   -0.42395E-04    75   0.101E-01    0.237E-02
RMM:   5    -0.989221372256E+02   -0.67339E-05   -0.11713E-04    68   0.505E-02    0.669E-03
RMM:   6    -0.989221393193E+02   -0.20937E-05   -0.21523E-05    51   0.220E-02
     25 T=   758. E= -.99349055E+02 F= -.98922139E+02 E0= -.98924072E+02  EK= 0.14702E+01 SP= -.20E+01 SK= 0.13E+00
       N       E                     dE             d eps       ncg     rms          rms(c)
RMM:   1    -0.987107728781E+02    0.21136E+00   -0.26733E-01    72   0.338E+00    0.195E-01
RMM:   2    -0.987116695700E+02   -0.89669E-03   -0.13567E-02    72   0.717E-01    0.131E-01
RMM:   3    -0.987117775125E+02   -0.10794E-03   -0.29521E-03    72   0.286E-01    0.527E-02
RMM:   4    -0.987118258793E+02   -0.48367E-04   -0.59636E-04    78   0.118E-01    0.310E-02
RMM:   5    -0.987118463804E+02   -0.20501E-04   -0.14104E-04    72   0.566E-02    0.949E-03
RMM:   6    -0.987118525674E+02   -0.61870E-05   -0.35197E-05    58   0.273E-02
     26 T=   706. E= -.99346091E+02 F= -.98711853E+02 E0= -.98713785E+02  EK= 0.13691E+01 SP= -.21E+01 SK= 0.92E-01
       N       E                     dE             d eps       ncg     rms          rms(c)
RMM:   1    -0.986340491063E+02    0.77797E-01   -0.16687E-01    72   0.257E+00    0.158E-01
RMM:   2    -0.986344820021E+02   -0.43290E-03   -0.91137E-03    72   0.604E-01    0.103E-01
RMM:   3    -0.986345997966E+02   -0.11779E-03   -0.23701E-03    73   0.254E-01    0.493E-02
RMM:   4    -0.986346156988E+02   -0.15902E-04   -0.38206E-04    74   0.104E-01    0.357E-02
RMM:   5    -0.986346467807E+02   -0.31082E-04   -0.11301E-04    68   0.544E-02    0.116E-02
RMM:   6    -0.986346462588E+02    0.52188E-06   -0.35660E-05    55   0.282E-02
     27 T=   709. E= -.99350689E+02 F= -.98634646E+02 E0= -.98636579E+02  EK= 0.13749E+01 SP= -.22E+01 SK= 0.66E-01
       N       E                     dE             d eps       ncg     rms          rms(c)
RMM:   1    -0.986209016001E+02    0.13745E-01   -0.23847E-01    72   0.298E+00    0.215E-01
RMM:   2    -0.986214618330E+02   -0.56023E-03   -0.13575E-02    73   0.664E-01    0.144E-01
RMM:   3    -0.986214521358E+02    0.96971E-05   -0.34805E-03    71   0.288E-01    0.546E-02
RMM:   4    -0.986214721561E+02   -0.20020E-04   -0.62888E-04    76   0.122E-01    0.415E-02
RMM:   5    -0.986214921141E+02   -0.19958E-04   -0.17615E-04    72   0.611E-02    0.122E-02
RMM:   6    -0.986214935721E+02   -0.14580E-05   -0.38070E-05    57   0.311E-02
     28 T=   737. E= -.99358828E+02 F= -.98621494E+02 E0= -.98623428E+02  EK= 0.14281E+01 SP= -.22E+01 SK= 0.42E-01
       N       E                     dE             d eps       ncg     rms          rms(c)
RMM:   1    -0.985509765306E+02    0.70516E-01   -0.17987E-01    72   0.261E+00    0.146E-01
RMM:   2    -0.985518213996E+02   -0.84487E-03   -0.10977E-02    73   0.566E-01    0.101E-01
RMM:   3    -0.985518761841E+02   -0.54785E-04   -0.21362E-03    74   0.215E-01    0.464E-02
RMM:   4    -0.985519162869E+02   -0.40103E-04   -0.44353E-04    75   0.936E-02    0.216E-02
RMM:   5    -0.985519274307E+02   -0.11144E-04   -0.99397E-05    72   0.441E-02    0.907E-03
RMM:   6    -0.985519345713E+02   -0.71406E-05   -0.20089E-05    48   0.216E-02
     29 T=   726. E= -.99368635E+02 F= -.98551935E+02 E0= -.98554038E+02  EK= 0.14073E+01 SP= -.22E+01 SK= 0.22E-01
       N       E                     dE             d eps       ncg     rms          rms(c)
RMM:   1    -0.983176896701E+02    0.23424E+00   -0.18331E-01    72   0.265E+00    0.244E-01
RMM:   2    -0.983161835215E+02    0.15061E-02   -0.15745E-02    72   0.683E-01    0.126E-01
RMM:   3    -0.983164469160E+02   -0.26339E-03   -0.22028E-03    72   0.254E-01    0.167E-01
RMM:   4    -0.983162610581E+02    0.18586E-03   -0.84516E-04    77   0.124E-01    0.825E-02
RMM:   5    -0.983164989952E+02   -0.23794E-03   -0.63444E-04    71   0.109E-01    0.171E-01
RMM:   6    -0.983161645845E+02    0.33441E-03   -0.15688E-04    71   0.639E-02    0.146E-02
RMM:   7    -0.983161983489E+02   -0.33764E-04   -0.48376E-05    63   0.307E-02    0.307E-02
RMM:   8    -0.983162210696E+02   -0.22721E-04   -0.14047E-05    48   0.168E-02    0.123E-02
RMM:   9    -0.983162339735E+02   -0.12904E-04   -0.41407E-06    47   0.884E-03    0.230E-03
RMM:  10    -0.983162546094E+02   -0.20636E-04   -0.37128E-06    47   0.693E-03    0.103E-02
RMM:  11    -0.983162746471E+02   -0.20038E-04   -0.32940E-06    44   0.497E-03    0.470E-03
RMM:  12    -0.983162799140E+02   -0.52669E-05   -0.10057E-06    30   0.340E-03
     30 T=   629. E= -.99359055E+02 F= -.98316280E+02 E0= -.98320248E+02  EK= 0.12198E+01 SP= -.23E+01 SK= 0.10E-01
       N       E                     dE             d eps       ncg     rms          rms(c)
RMM:   1    -0.980739499861E+02    0.24232E+00   -0.30820E-01    72   0.321E+00    0.505E-01
RMM:   2    -0.980621446424E+02    0.11805E-01   -0.35626E-02    72   0.931E-01    0.259E-01
RMM:   3    -0.980622782938E+02   -0.13365E-03   -0.42400E-03    72   0.354E-01    0.360E-01
RMM:   4    -0.980612549412E+02    0.10234E-02   -0.26812E-03    76   0.186E-01    0.120E-01
RMM:   5    -0.980640721601E+02   -0.28172E-02   -0.22007E-03    71   0.180E-01    0.538E-01
RMM:   6    -0.980612423608E+02    0.28298E-02   -0.89775E-04    71   0.137E-01    0.207E-01
RMM:   7    -0.980610382601E+02    0.20410E-03   -0.24807E-04    71   0.712E-02    0.121E-01
RMM:   8    -0.980610072838E+02    0.30976E-04   -0.34462E-04    71   0.644E-02    0.268E-02
RMM:   9    -0.980611171236E+02   -0.10984E-03   -0.53171E-05    60   0.379E-02    0.112E-02
RMM:  10    -0.980612113235E+02   -0.94200E-04   -0.26195E-05    52   0.177E-02    0.190E-02
RMM:  11    -0.980612584663E+02   -0.47143E-04   -0.19567E-05    51   0.126E-02    0.817E-03
RMM:  12    -0.980613208885E+02   -0.62422E-04   -0.13894E-05    51   0.125E-02    0.373E-03
RMM:  13    -0.980613382408E+02   -0.17352E-04   -0.34970E-06    46   0.647E-03    0.469E-03
RMM:  14    -0.980613567519E+02   -0.18511E-04   -0.29000E-06    40   0.480E-03    0.191E-03
RMM:  15    -0.980613640749E+02   -0.73231E-05   -0.13783E-06    32   0.353E-03
     31 T=   522. E= -.99334583E+02 F= -.98061364E+02 E0= -.98065366E+02  EK= 0.10128E+01 SP= -.23E+01 SK= 0.70E-02
       N       E                     dE             d eps       ncg     rms          rms(c)
RMM:   1    -0.981409257159E+02   -0.79569E-01   -0.36186E-01    72   0.370E+00    0.353E-01
RMM:   2    -0.981387476426E+02    0.21781E-02   -0.23110E-02    72   0.854E-01    0.308E-01
RMM:   3    -0.981358046658E+02    0.29430E-02   -0.10683E-02    72   0.422E-01    0.185E-01
RMM:   4    -0.981364873398E+02   -0.68267E-03   -0.15162E-03    72   0.202E-01    0.297E-01
RMM:   5    -0.981357168984E+02    0.77044E-03   -0.36873E-03    72   0.227E-01    0.263E-01
RMM:   6    -0.981363238781E+02   -0.60698E-03   -0.15477E-03    73   0.157E-01    0.422E-01
RMM:   7    -0.981355995202E+02    0.72436E-03   -0.22526E-03    73   0.164E-01    0.196E-01
RMM:   8    -0.981352859464E+02    0.31357E-03   -0.18491E-04    71   0.798E-02    0.800E-02
RMM:   9    -0.981352869884E+02   -0.10420E-05   -0.28550E-04    71   0.609E-02    0.653E-02
RMM:  10    -0.981353807891E+02   -0.93801E-04   -0.94340E-05    71   0.417E-02    0.617E-02
RMM:  11    -0.981354013775E+02   -0.20588E-04   -0.16128E-05    50   0.168E-02    0.475E-02
RMM:  12    -0.981354493608E+02   -0.47983E-04   -0.18343E-05    50   0.143E-02    0.785E-03
RMM:  13    -0.981354827877E+02   -0.33427E-04   -0.10804E-05    48   0.106E-02    0.451E-03
RMM:  14    -0.981355146851E+02   -0.31897E-04   -0.88876E-06    48   0.965E-03    0.145E-02
RMM:  15    -0.981355259637E+02   -0.11279E-04   -0.26092E-06    47   0.573E-03    0.265E-03
RMM:  16    -0.981355338886E+02   -0.79249E-05   -0.13395E-06    32   0.397E-03
     32 T=   571. E= -.99332547E+02 F= -.98135534E+02 E0= -.98139635E+02  EK= 0.11076E+01 SP= -.23E+01 SK= 0.61E-02
       N       E                     dE             d eps       ncg     rms          rms(c)
RMM:   1    -0.985499867320E+02   -0.41446E+00   -0.98546E-02    72   0.208E+00    0.120E-01
RMM:   2    -0.985508975222E+02   -0.91079E-03   -0.78262E-03    74   0.460E-01    0.184E-01
RMM:   3    -0.985507398104E+02    0.15771E-03   -0.15639E-03    73   0.181E-01    0.733E-02
RMM:   4    -0.985507969707E+02   -0.57160E-04   -0.41590E-04    75   0.898E-02    0.396E-02
RMM:   5    -0.985508223742E+02   -0.25403E-04   -0.80650E-05    69   0.448E-02    0.133E-02
RMM:   6    -0.985508318203E+02   -0.94461E-05   -0.22904E-05    50   0.224E-02
     33 T=   778. E= -.99363421E+02 F= -.98550832E+02 E0= -.98554961E+02  EK= 0.15094E+01 SP= -.23E+01 SK= 0.15E-02
       N       E                     dE             d eps       ncg     rms          rms(c)
RMM:   1    -0.988804641398E+02   -0.32964E+00   -0.26092E-01    72   0.349E+00    0.193E-01
RMM:   2    -0.988823087866E+02   -0.18446E-02   -0.13908E-02    72   0.669E-01    0.268E-01
RMM:   3    -0.988817851002E+02    0.52369E-03   -0.32343E-03    73   0.265E-01    0.119E-01
RMM:   4    -0.988818105296E+02   -0.25429E-04   -0.60400E-04    74   0.120E-01    0.675E-02
RMM:   5    -0.988818631519E+02   -0.52622E-04   -0.36953E-04    73   0.830E-02    0.180E-02
RMM:   6    -0.988818633416E+02   -0.18976E-06   -0.38142E-05    58   0.326E-02
     34 T=   939. E= -.99381560E+02 F= -.98881863E+02 E0= -.98885945E+02  EK= 0.18198E+01 SP= -.23E+01 SK= 0.26E-02
       N       E                     dE             d eps       ncg     rms          rms(c)
RMM:   1    -0.988631704279E+02    0.18693E-01   -0.37870E-01    72   0.409E+00    0.189E-01
RMM:   2    -0.988651575968E+02   -0.19872E-02   -0.19796E-02    72   0.798E-01    0.207E-01
RMM:   3    -0.988653211322E+02   -0.16354E-03   -0.47900E-03    74   0.308E-01    0.152E-01
RMM:   4    -0.988652766632E+02    0.44469E-04   -0.77717E-04    72   0.139E-01    0.846E-02
RMM:   5    -0.988653310393E+02   -0.54376E-04   -0.56642E-04    71   0.105E-01    0.265E-02
RMM:   6    -0.988653292029E+02    0.18364E-05   -0.79424E-05    71   0.426E-02
     35 T=   913. E= -.99369483E+02 F= -.98865329E+02 E0= -.98869342E+02  EK= 0.17709E+01 SP= -.23E+01 SK= 0.24E-01
       N       E                     dE             d eps       ncg     rms          rms(c)
RMM:   1    -0.986565241949E+02    0.20881E+00   -0.42732E-01    72   0.408E+00    0.254E-01
RMM:   2    -0.986595219736E+02   -0.29978E-02   -0.23165E-02    72   0.934E-01    0.485E-01
RMM:   3    -0.986582871187E+02    0.12349E-02   -0.50019E-03    74   0.348E-01    0.162E-01
RMM:   4    -0.986583279569E+02   -0.40838E-04   -0.13467E-03    73   0.174E-01    0.751E-02
RMM:   5    -0.986583746231E+02   -0.46666E-04   -0.47567E-04    72   0.976E-02    0.284E-02
RMM:   6    -0.986583809823E+02   -0.63592E-05   -0.62755E-05    65   0.396E-02
     36 T=   782. E= -.99342718E+02 F= -.98658381E+02 E0= -.98662388E+02  EK= 0.15159E+01 SP= -.23E+01 SK= 0.56E-01
       N       E                     dE             d eps       ncg     rms          rms(c)
RMM:   1    -0.986169739134E+02    0.41401E-01   -0.45721E-01    72   0.460E+00    0.263E-01
RMM:   2    -0.986191219882E+02   -0.21481E-02   -0.24493E-02    73   0.922E-01    0.302E-01
RMM:   3    -0.986190090063E+02    0.11298E-03   -0.51944E-03    75   0.353E-01    0.183E-01
RMM:   4    -0.986188952686E+02    0.11374E-03   -0.18196E-03    72   0.203E-01    0.619E-02
RMM:   5    -0.986189896533E+02   -0.94385E-04   -0.52048E-04    76   0.105E-01    0.357E-02
RMM:   6    -0.986190320735E+02   -0.42420E-04   -0.14979E-04    71   0.541E-02    0.183E-02
RMM:   7    -0.986190395421E+02   -0.74686E-05   -0.37361E-05    58   0.280E-02
     37 T=   719. E= -.99339767E+02 F= -.98619040E+02 E0= -.98623258E+02  EK= 0.13936E+01 SP= -.22E+01 SK= 0.84E-01
       N       E                     dE             d eps       ncg     rms          rms(c)
RMM:   1    -0.988066970336E+02   -0.18766E+00   -0.16527E-01    72   0.264E+00    0.159E-01
RMM:   2    -0.988074120566E+02   -0.71502E-03   -0.14031E-02    74   0.593E-01    0.144E-01
RMM:   3    -0.988071301220E+02    0.28193E-03   -0.33796E-03    74   0.243E-01    0.146E-01
RMM:   4    -0.988072553066E+02   -0.12518E-03   -0.62039E-04    76   0.111E-01    0.146E-01
RMM:   5    -0.988075650300E+02   -0.30972E-03   -0.40795E-04    71   0.799E-02    0.122E-01
RMM:   6    -0.988081967122E+02   -0.63168E-03   -0.38513E-03    74   0.228E-01    0.151E-01
RMM:   7    -0.988085799226E+02   -0.38321E-03   -0.86375E-04    71   0.131E-01    0.172E-01
RMM:   8    -0.988087878752E+02   -0.20795E-03   -0.36957E-04    75   0.676E-02    0.209E-01
RMM:   9    -0.988083089556E+02    0.47892E-03   -0.25481E-04    72   0.628E-02    0.155E-01
RMM:  10    -0.988079093413E+02    0.39961E-03   -0.82450E-04    77   0.925E-02    0.106E-01
RMM:  11    -0.988079357751E+02   -0.26434E-04   -0.62085E-05    65   0.403E-02    0.111E-01
RMM:  12    -0.988076243658E+02    0.31141E-03   -0.21781E-04    73   0.494E-02    0.116E-01
RMM:  13    -0.988073738940E+02    0.25047E-03   -0.26857E-04    76   0.541E-02    0.121E-01
RMM:  14    -0.988074077663E+02   -0.33872E-04   -0.14230E-05    47   0.222E-02    0.119E-01
RMM:  15    -0.988076520589E+02   -0.24429E-03   -0.71186E-05    63   0.272E-02    0.108E-01
RMM:  16    -0.988080119315E+02   -0.35987E-03   -0.29587E-04    82   0.510E-02    0.108E-01
RMM:  17    -0.988083139607E+02   -0.30203E-03   -0.14286E-04    77   0.380E-02    0.134E-01
RMM:  18    -0.988088192051E+02   -0.50524E-03   -0.22490E-04    79   0.463E-02    0.220E-01
RMM:  19    -0.988087379719E+02    0.81233E-04   -0.69834E-06    47   0.145E-02    0.210E-01
RMM:  20    -0.988082557233E+02    0.48225E-03   -0.19019E-04    78   0.406E-02    0.124E-01
RMM:  21    -0.988080300515E+02    0.22567E-03   -0.15737E-04    78   0.386E-02    0.949E-02
RMM:  22    -0.988077433996E+02    0.28665E-03   -0.24449E-04    80   0.471E-02    0.989E-02
RMM:  23    -0.988073443890E+02    0.39901E-03   -0.30584E-04    84   0.529E-02    0.118E-01
RMM:  24    -0.988071780514E+02    0.16634E-03   -0.50765E-05    62   0.240E-02    0.122E-01
RMM:  25    -0.988071462095E+02    0.31842E-04   -0.59732E-06    47   0.114E-02    0.122E-01
RMM:  26    -0.988071777618E+02   -0.31552E-04   -0.13206E-06    47   0.602E-03    0.121E-01
RMM:  27    -0.988073066384E+02   -0.12888E-03   -0.21386E-05    51   0.143E-02    0.118E-01
RMM:  28    -0.988074729023E+02   -0.16626E-03   -0.50990E-05    60   0.211E-02    0.114E-01
RMM:  29    -0.988076105105E+02   -0.13761E-03   -0.32300E-05    52   0.181E-02    0.110E-01
RMM:  30    -0.988080886397E+02   -0.47813E-03   -0.46322E-04    86   0.621E-02    0.107E-01
RMM:  31    -0.988082369847E+02   -0.14835E-03   -0.41747E-05    56   0.214E-02    0.119E-01
RMM:  32    -0.988081671730E+02    0.69812E-04   -0.61607E-06    47   0.111E-02    0.113E-01
RMM:  33    -0.988080079016E+02    0.15927E-03   -0.54095E-05    60   0.218E-02    0.106E-01
RMM:  34    -0.988072653082E+02    0.74259E-03   -0.98431E-04    97   0.916E-02    0.125E-01
RMM:  35    -0.988064290707E+02    0.83624E-03   -0.11971E-03   102   0.101E-01    0.121E-01
RMM:  36    -0.988063011695E+02    0.12790E-03   -0.49627E-05    60   0.222E-02    0.115E-01
RMM:  37    -0.988061827531E+02    0.11842E-03   -0.63109E-05    64   0.248E-02    0.110E-01
RMM:  38    -0.988061983583E+02   -0.15605E-04   -0.22395E-06    47   0.755E-03    0.112E-01
RMM:  39    -0.988061967180E+02    0.16403E-05   -0.47716E-07    38   0.396E-03
     38 T=   754. E= -.99355961E+02 F= -.98806197E+02 E0= -.98808230E+02  EK= 0.14611E+01 SP= -.21E+01 SK= 0.12E+00
       N       E                     dE             d eps       ncg     rms          rms(c)
RMM:   1    -0.989871747037E+02   -0.18098E+00   -0.20381E-01    72   0.284E+00    0.481E-01
RMM:   2    -0.989828262230E+02    0.43485E-02   -0.19601E-02    72   0.674E-01    0.255E-01
RMM:   3    -0.989817888224E+02    0.10374E-02   -0.73268E-03    73   0.339E-01    0.109E-01
RMM:   4    -0.989815764630E+02    0.21236E-03   -0.15396E-03    75   0.165E-01    0.312E-02
RMM:   5    -0.989815880886E+02   -0.11626E-04   -0.33345E-04    77   0.759E-02    0.194E-02
RMM:   6    -0.989816881300E+02   -0.10004E-03   -0.97716E-05    71   0.402E-02    0.984E-03
RMM:   7    -0.989817506930E+02   -0.62563E-04   -0.25337E-05    54   0.225E-02    0.654E-03
RMM:   8    -0.989819337151E+02   -0.18302E-03   -0.42341E-05    61   0.216E-02    0.575E-03
RMM:   9    -0.989819664705E+02   -0.32755E-04   -0.10864E-05    49   0.107E-02    0.397E-03
RMM:  10    -0.989820365110E+02   -0.70041E-04   -0.14905E-05    50   0.116E-02    0.203E-03
RMM:  11    -0.989820528196E+02   -0.16309E-04   -0.30673E-06    43   0.599E-03    0.150E-03
RMM:  12    -0.989820704597E+02   -0.17640E-04   -0.28842E-06    43   0.530E-03    0.642E-04
RMM:  13    -0.989820760847E+02   -0.56250E-05   -0.10600E-06    32   0.341E-03
     39 T=   774. E= -.99361517E+02 F= -.98982076E+02 E0= -.98984010E+02  EK= 0.15007E+01 SP= -.20E+01 SK= 0.17E+00
       N       E                     dE             d eps       ncg     rms          rms(c)
RMM:   1    -0.989979344011E+02   -0.15864E-01   -0.23705E-01    72   0.301E+00    0.282E-01
RMM:   2    -0.989979644138E+02   -0.30013E-04   -0.15773E-02    74   0.630E-01    0.164E-01
RMM:   3    -0.989978731260E+02    0.91288E-04   -0.44408E-03    74   0.282E-01    0.647E-02
RMM:   4    -0.989978982843E+02   -0.25158E-04   -0.66847E-04    74   0.116E-01    0.360E-02
RMM:   5    -0.989979118125E+02   -0.13528E-04   -0.18929E-04    73   0.602E-02    0.115E-02
RMM:   6    -0.989979167847E+02   -0.49721E-05   -0.44566E-05    60   0.306E-02
     40 T=   708. E= -.99356191E+02 F= -.98997917E+02 E0= -.98999850E+02  EK= 0.13735E+01 SP= -.20E+01 SK= 0.22E+00
       N       E                     dE             d eps       ncg     rms          rms(c)
RMM:   1    -0.988683097860E+02    0.12960E+00   -0.18796E-01    72   0.270E+00    0.164E-01
RMM:   2    -0.988689439447E+02   -0.63416E-03   -0.11589E-02    72   0.595E-01    0.976E-02
RMM:   3    -0.988691624568E+02   -0.21851E-03   -0.32394E-03    74   0.240E-01    0.526E-02
RMM:   4    -0.988692134877E+02   -0.51031E-04   -0.57523E-04    74   0.104E-01    0.247E-02
RMM:   5    -0.988692456578E+02   -0.32170E-04   -0.13673E-04    75   0.524E-02    0.976E-03
RMM:   6    -0.988692600317E+02   -0.14374E-04   -0.35286E-05    57   0.263E-02    0.708E-03
RMM:   7    -0.988692734530E+02   -0.13421E-04   -0.83265E-06    47   0.148E-02    0.236E-03
RMM:   8    -0.988692801879E+02   -0.67349E-05   -0.22584E-06    47   0.725E-03
     41 T=   575. E= -.99344446E+02 F= -.98869280E+02 E0= -.98871213E+02  EK= 0.11156E+01 SP= -.18E+01 SK= 0.25E+00
       N       E                     dE             d eps       ncg     rms          rms(c)
RMM:   1    -0.987412309584E+02    0.12804E+00   -0.19774E-01    72   0.267E+00    0.140E-01
RMM:   2    -0.987421552122E+02   -0.92425E-03   -0.11255E-02    72   0.613E-01    0.950E-02
RMM:   3    -0.987423404739E+02   -0.18526E-03   -0.25126E-03    74   0.225E-01    0.431E-02
RMM:   4    -0.987423798164E+02   -0.39343E-04   -0.38570E-04    72   0.925E-02    0.158E-02
RMM:   5    -0.987424019497E+02   -0.22133E-04   -0.14047E-04    73   0.476E-02    0.796E-03
RMM:   6    -0.987424105146E+02   -0.85648E-05   -0.14811E-05    50   0.189E-02
     42 T=   458. E= -.99330847E+02 F= -.98742411E+02 E0= -.98744343E+02  EK= 0.88780E+00 SP= -.17E+01 SK= 0.26E+00
       N       E                     dE             d eps       ncg     rms          rms(c)
RMM:   1    -0.988151106802E+02   -0.72709E-01   -0.26067E-01    72   0.315E+00    0.192E-01
RMM:   2    -0.988160102590E+02   -0.89958E-03   -0.14226E-02    73   0.653E-01    0.133E-01
RMM:   3    -0.988161264965E+02   -0.11624E-03   -0.33667E-03    75   0.257E-01    0.503E-02
RMM:   4    -0.988161603138E+02   -0.33817E-04   -0.37239E-04    72   0.953E-02    0.301E-02
RMM:   5    -0.988161868482E+02   -0.26534E-04   -0.12028E-04    71   0.519E-02    0.656E-03
RMM:   6    -0.988161959458E+02   -0.90977E-05   -0.34371E-05    54   0.245E-02
     43 T=   445. E= -.99333569E+02 F= -.98816196E+02 E0= -.98818129E+02  EK= 0.86235E+00 SP= -.16E+01 SK= 0.24E+00
       N       E                     dE             d eps       ncg     rms          rms(c)
RMM:   1    -0.990719225276E+02   -0.25574E+00   -0.96606E-02    72   0.203E+00    0.112E-01
RMM:   2    -0.990723647551E+02   -0.44223E-03   -0.58875E-03    71   0.428E-01    0.763E-02
RMM:   3    -0.990725174307E+02   -0.15268E-03   -0.17138E-03    75   0.177E-01    0.387E-02
RMM:   4    -0.990725361396E+02   -0.18709E-04   -0.20743E-04    72   0.706E-02    0.202E-02
RMM:   5    -0.990725508384E+02   -0.14699E-04   -0.76761E-05    68   0.392E-02    0.596E-03
RMM:   6    -0.990725548009E+02   -0.39625E-05   -0.19896E-05    49   0.201E-02
     44 T=   514. E= -.99351344E+02 F= -.99072555E+02 E0= -.99074487E+02  EK= 0.99590E+00 SP= -.15E+01 SK= 0.24E+00
       N       E                     dE             d eps       ncg     rms          rms(c)
RMM:   1    -0.992517938495E+02   -0.17924E+00   -0.84877E-02    72   0.191E+00    0.105E-01
RMM:   2    -0.992521886028E+02   -0.39475E-03   -0.46378E-03    72   0.383E-01    0.668E-02
RMM:   3    -0.992523214450E+02   -0.13284E-03   -0.12128E-03    76   0.154E-01    0.351E-02
RMM:   4    -0.992523480026E+02   -0.26558E-04   -0.21129E-04    75   0.654E-02    0.116E-02
RMM:   5    -0.992523561162E+02   -0.81136E-05   -0.34822E-05    58   0.296E-02    0.577E-03
RMM:   6    -0.992523594094E+02   -0.32932E-05   -0.70207E-06    47   0.128E-02
     45 T=   541. E= -.99355627E+02 F= -.99252359E+02 E0= -.99254292E+02  EK= 0.10499E+01 SP= -.14E+01 SK= 0.25E+00
       N       E                     dE             d eps       ncg     rms          rms(c)
RMM:   1    -0.992299967740E+02    0.22359E-01   -0.13434E-01    72   0.226E+00    0.138E-01
RMM:   2    -0.992304342282E+02   -0.43745E-03   -0.68819E-03    72   0.499E-01    0.836E-02
RMM:   3    -0.992305503857E+02   -0.11616E-03   -0.16137E-03    74   0.194E-01    0.455E-02
RMM:   4    -0.992305672207E+02   -0.16835E-04   -0.24709E-04    72   0.804E-02    0.191E-02
RMM:   5    -0.992305767063E+02   -0.94856E-05   -0.66498E-05    66   0.408E-02    0.725E-03
RMM:   6    -0.992305796420E+02   -0.29357E-05   -0.16066E-05    48   0.195E-02
     46 T=   476. E= -.99342304E+02 F= -.99230580E+02 E0= -.99232512E+02  EK= 0.92279E+00 SP= -.13E+01 SK= 0.26E+00
       N       E                     dE             d eps       ncg     rms          rms(c)
RMM:   1    -0.991447068867E+02    0.85870E-01   -0.14702E-01    72   0.218E+00    0.146E-01
RMM:   2    -0.991452356188E+02   -0.52873E-03   -0.87336E-03    72   0.540E-01    0.938E-02
RMM:   3    -0.991453348278E+02   -0.99209E-04   -0.21532E-03    74   0.215E-01    0.447E-02
RMM:   4    -0.991453577842E+02   -0.22956E-04   -0.30971E-04    73   0.904E-02    0.239E-02
RMM:   5    -0.991453710928E+02   -0.13309E-04   -0.85832E-05    68   0.463E-02    0.711E-03
RMM:   6    -0.991453762497E+02   -0.51570E-05   -0.23660E-05    51   0.221E-02
     47 T=   388. E= -.99330670E+02 F= -.99145376E+02 E0= -.99147309E+02  EK= 0.75295E+00 SP= -.12E+01 SK= 0.25E+00
       N       E                     dE             d eps       ncg     rms          rms(c)
RMM:   1    -0.991635391722E+02   -0.18168E-01   -0.10003E-01    72   0.202E+00    0.119E-01
RMM:   2    -0.991639696168E+02   -0.43044E-03   -0.55217E-03    72   0.425E-01    0.817E-02
RMM:   3    -0.991640714099E+02   -0.10179E-03   -0.14325E-03    76   0.173E-01    0.284E-02
RMM:   4    -0.991640903766E+02   -0.18967E-04   -0.19941E-04    75   0.672E-02    0.159E-02
RMM:   5    -0.991640978443E+02   -0.74677E-05   -0.50092E-05    64   0.328E-02    0.455E-03
RMM:   6    -0.991641008058E+02   -0.29616E-05   -0.98674E-06    47   0.151E-02
     48 T=   356. E= -.99333378E+02 F= -.99164101E+02 E0= -.99166033E+02  EK= 0.69110E+00 SP= -.11E+01 SK= 0.22E+00
       N       E                     dE             d eps       ncg     rms          rms(c)
RMM:   1    -0.992695950256E+02   -0.10550E+00   -0.58763E-02    72   0.152E+00    0.913E-02
RMM:   2    -0.992698570855E+02   -0.26206E-03   -0.37245E-03    74   0.347E-01    0.622E-02
RMM:   3    -0.992699049551E+02   -0.47870E-04   -0.90602E-04    73   0.147E-01    0.244E-02
RMM:   4    -0.992699164927E+02   -0.11538E-04   -0.17020E-04    74   0.594E-02    0.183E-02
RMM:   5    -0.992699254704E+02   -0.89777E-05   -0.44914E-05    62   0.318E-02    0.630E-03
RMM:   6    -0.992699261770E+02   -0.70669E-06   -0.95374E-06    47   0.161E-02
     49 T=   370. E= -.99340518E+02 F= -.99269926E+02 E0= -.99271859E+02  EK= 0.71653E+00 SP= -.98E+00 SK= 0.19E+00
       N       E                     dE             d eps       ncg     rms          rms(c)
RMM:   1    -0.993515345869E+02   -0.81609E-01   -0.90979E-02    72   0.178E+00    0.120E-01
RMM:   2    -0.993518233928E+02   -0.28881E-03   -0.51674E-03    74   0.386E-01    0.832E-02
RMM:   3    -0.993518210108E+02    0.23819E-05   -0.13252E-03    73   0.166E-01    0.305E-02
RMM:   4    -0.993518208347E+02    0.17608E-06   -0.18151E-04    72   0.672E-02    0.228E-02
RMM:   5    -0.993518327461E+02   -0.11911E-04   -0.89762E-05    68   0.403E-02    0.860E-03
RMM:   6    -0.993518315787E+02    0.11674E-05   -0.22337E-05    51   0.223E-02
     50 T=   374. E= -.99341674E+02 F= -.99351832E+02 E0= -.99353764E+02  EK= 0.72524E+00 SP= -.89E+00 SK= 0.17E+00
       N       E                     dE             d eps       ncg     rms          rms(c)
RMM:   1    -0.993610422252E+02   -0.92095E-02   -0.95109E-02    72   0.177E+00    0.108E-01
RMM:   2    -0.993614085693E+02   -0.36634E-03   -0.50444E-03    72   0.401E-01    0.740E-02
RMM:   3    -0.993614171548E+02   -0.85854E-05   -0.10165E-03    74   0.152E-01    0.266E-02
RMM:   4    -0.993614366761E+02   -0.19521E-04   -0.20747E-04    75   0.623E-02    0.164E-02
RMM:   5    -0.993614400876E+02   -0.34114E-05   -0.40134E-05    63   0.301E-02    0.518E-03
RMM:   6    -0.993614413937E+02   -0.13062E-05   -0.86296E-06    47   0.143E-02
     51 T=   346. E= -.99339212E+02 F= -.99361441E+02 E0= -.99363374E+02  EK= 0.67177E+00 SP= -.80E+00 SK= 0.15E+00
       N       E                     dE             d eps       ncg     rms          rms(c)
RMM:   1    -0.993171432978E+02    0.44297E-01   -0.87808E-02    72   0.169E+00    0.908E-02
RMM:   2    -0.993176224513E+02   -0.47915E-03   -0.53622E-03    73   0.404E-01    0.587E-02
RMM:   3    -0.993177095269E+02   -0.87076E-04   -0.10875E-03    74   0.150E-01    0.284E-02
RMM:   4    -0.993177285257E+02   -0.18999E-04   -0.23440E-04    77   0.656E-02    0.870E-03
RMM:   5    -0.993177350560E+02   -0.65303E-05   -0.56189E-05    58   0.298E-02    0.478E-03
RMM:   6    -0.993177372078E+02   -0.21519E-05   -0.68723E-06    47   0.123E-02
     52 T=   299. E= -.99334893E+02 F= -.99317737E+02 E0= -.99319670E+02  EK= 0.57895E+00 SP= -.72E+00 SK= 0.12E+00
       N       E                     dE             d eps       ncg     rms          rms(c)
RMM:   1    -0.992849566361E+02    0.32778E-01   -0.10059E-01    72   0.183E+00    0.113E-01
RMM:   2    -0.992854171003E+02   -0.46046E-03   -0.62325E-03    73   0.427E-01    0.760E-02
RMM:   3    -0.992854597850E+02   -0.42685E-04   -0.12234E-03    74   0.161E-01    0.346E-02
RMM:   4    -0.992854735060E+02   -0.13721E-04   -0.22686E-04    73   0.672E-02    0.140E-02
RMM:   5    -0.992854815616E+02   -0.80555E-05   -0.54814E-05    62   0.330E-02    0.595E-03
RMM:   6    -0.992854857178E+02   -0.41562E-05   -0.87245E-06    48   0.143E-02
     53 T=   264. E= -.99329965E+02 F= -.99285486E+02 E0= -.99287418E+02  EK= 0.51134E+00 SP= -.65E+00 SK= 0.92E-01
       N       E                     dE             d eps       ncg     rms          rms(c)
RMM:   1    -0.993395347137E+02   -0.54053E-01   -0.94502E-02    72   0.184E+00    0.125E-01
RMM:   2    -0.993398293229E+02   -0.29461E-03   -0.54410E-03    72   0.416E-01    0.834E-02
RMM:   3    -0.993398293959E+02   -0.72949E-07   -0.12034E-03    73   0.167E-01    0.354E-02
RMM:   4    -0.993398403360E+02   -0.10940E-04   -0.18712E-04    74   0.683E-02    0.209E-02
RMM:   5    -0.993398473748E+02   -0.70387E-05   -0.54999E-05    66   0.359E-02    0.646E-03
RMM:   6    -0.993398490743E+02   -0.16996E-05   -0.16684E-05    48   0.195E-02
     54 T=   274. E= -.99331313E+02 F= -.99339849E+02 E0= -.99341782E+02  EK= 0.53210E+00 SP= -.59E+00 SK= 0.63E-01
       N       E                     dE             d eps       ncg     rms          rms(c)
RMM:   1    -0.994632663602E+02   -0.12342E+00   -0.55463E-02    72   0.142E+00    0.945E-02
RMM:   2    -0.994634640324E+02   -0.19767E-03   -0.36296E-03    73   0.343E-01    0.623E-02
RMM:   3    -0.994634974084E+02   -0.33376E-04   -0.83945E-04    72   0.142E-01    0.299E-02
RMM:   4    -0.994635103881E+02   -0.12980E-04   -0.16149E-04    73   0.610E-02    0.194E-02
RMM:   5    -0.994635179579E+02   -0.75699E-05   -0.38155E-05    60   0.312E-02    0.547E-03
RMM:   6    -0.994635192293E+02   -0.12714E-05   -0.13090E-05    48   0.168E-02
     55 T=   319. E= -.99338651E+02 F= -.99463519E+02 E0= -.99465452E+02  EK= 0.61810E+00 SP= -.54E+00 SK= 0.43E-01
       N       E                     dE             d eps       ncg     rms          rms(c)
RMM:   1    -0.995470637995E+02   -0.83546E-01   -0.71494E-02    72   0.164E+00    0.109E-01
RMM:   2    -0.995472664029E+02   -0.20260E-03   -0.42447E-03    73   0.375E-01    0.697E-02
RMM:   3    -0.995473124449E+02   -0.46042E-04   -0.95889E-04    72   0.156E-01    0.347E-02
RMM:   4    -0.995473233720E+02   -0.10927E-04   -0.17761E-04    73   0.645E-02    0.221E-02
RMM:   5    -0.995473297395E+02   -0.63674E-05   -0.39164E-05    63   0.321E-02    0.573E-03
RMM:   6    -0.995473304672E+02   -0.72778E-06   -0.12205E-05    48   0.165E-02
     56 T=   346. E= -.99341532E+02 F= -.99547330E+02 E0= -.99549263E+02  EK= 0.66998E+00 SP= -.49E+00 SK= 0.31E-01
       N       E                     dE             d eps       ncg     rms          rms(c)
RMM:   1    -0.995379110013E+02    0.94187E-02   -0.10600E-01    72   0.195E+00    0.121E-01
RMM:   2    -0.995382281529E+02   -0.31715E-03   -0.58282E-03    72   0.452E-01    0.793E-02
RMM:   3    -0.995383000692E+02   -0.71916E-04   -0.13340E-03    74   0.181E-01    0.411E-02
RMM:   4    -0.995383107843E+02   -0.10715E-04   -0.18977E-04    72   0.730E-02    0.227E-02
RMM:   5    -0.995383178987E+02   -0.71144E-05   -0.59232E-05    64   0.381E-02    0.605E-03
RMM:   6    -0.995383194887E+02   -0.15899E-05   -0.17288E-05    50   0.185E-02
     57 T=   331. E= -.99336634E+02 F= -.99538319E+02 E0= -.99540252E+02  EK= 0.64149E+00 SP= -.46E+00 SK= 0.20E-01
       N       E                     dE             d eps       ncg     rms          rms(c)
RMM:   1    -0.995014853400E+02    0.36833E-01   -0.10653E-01    72   0.180E+00    0.127E-01
RMM:   2    -0.995018363093E+02   -0.35097E-03   -0.56592E-03    72   0.434E-01    0.870E-02
RMM:   3    -0.995018816116E+02   -0.45302E-04   -0.14252E-03    74   0.172E-01    0.241E-02
RMM:   4    -0.995018935477E+02   -0.11936E-04   -0.23619E-04    74   0.692E-02    0.169E-02
RMM:   5    -0.995018929073E+02    0.64039E-06   -0.47759E-05    63   0.340E-02    0.444E-03
RMM:   6    -0.995018938960E+02   -0.98872E-06   -0.10994E-05    47   0.162E-02
     58 T=   306. E= -.99330357E+02 F= -.99501894E+02 E0= -.99503827E+02  EK= 0.59403E+00 SP= -.43E+00 SK= 0.11E-01
       N       E                     dE             d eps       ncg     rms          rms(c)
RMM:   1    -0.995285700681E+02   -0.26677E-01   -0.89204E-02    72   0.183E+00    0.126E-01
RMM:   2    -0.995288281113E+02   -0.25804E-03   -0.51431E-03    71   0.424E-01    0.814E-02
RMM:   3    -0.995289043332E+02   -0.76222E-04   -0.14282E-03    74   0.181E-01    0.361E-02
RMM:   4    -0.995289153879E+02   -0.11055E-04   -0.29324E-04    76   0.806E-02    0.251E-02
RMM:   5    -0.995289272048E+02   -0.11817E-04   -0.78077E-05    62   0.391E-02    0.918E-03
RMM:   6    -0.995289279470E+02   -0.74226E-06   -0.23097E-05    53   0.210E-02
     59 T=   314. E= -.99330863E+02 F= -.99528928E+02 E0= -.99530861E+02  EK= 0.60941E+00 SP= -.42E+00 SK= 0.38E-02
       N       E                     dE             d eps       ncg     rms          rms(c)
RMM:   1    -0.996157402842E+02   -0.86813E-01   -0.59661E-02    72   0.151E+00    0.923E-02
RMM:   2    -0.996159309839E+02   -0.19070E-03   -0.33764E-03    72   0.341E-01    0.613E-02
RMM:   3    -0.996159708638E+02   -0.39880E-04   -0.85355E-04    73   0.138E-01    0.274E-02
RMM:   4    -0.996159790241E+02   -0.81602E-05   -0.13935E-04    70   0.573E-02    0.185E-02
RMM:   5    -0.996159892690E+02   -0.10245E-04   -0.42927E-05    61   0.307E-02    0.527E-03
RMM:   6    -0.996159911661E+02   -0.18971E-05   -0.13394E-05    48   0.165E-02
     60 T=   354. E= -.99335302E+02 F= -.99615991E+02 E0= -.99617924E+02  EK= 0.68556E+00 SP= -.41E+00 SK= 0.68E-03
       N       E                     dE             d eps       ncg     rms          rms(c)
RMM:   1    -0.996936862244E+02   -0.77697E-01   -0.81045E-02    72   0.165E+00    0.109E-01
RMM:   2    -0.996939807575E+02   -0.29453E-03   -0.48327E-03    73   0.361E-01    0.770E-02
RMM:   3    -0.996939683103E+02    0.12447E-04   -0.10312E-03    73   0.147E-01    0.267E-02
RMM:   4    -0.996939850263E+02   -0.16716E-04   -0.19965E-04    75   0.614E-02    0.197E-02
RMM:   5    -0.996939904542E+02   -0.54279E-05   -0.44042E-05    58   0.299E-02    0.622E-03
RMM:   6    -0.996939920705E+02   -0.16163E-05   -0.14241E-05    48   0.168E-02
     61 T=   391. E= -.99338283E+02 F= -.99693992E+02 E0= -.99695925E+02  EK= 0.75837E+00 SP= -.40E+00 SK= 0.12E-06
       N       E                     dE             d eps       ncg     rms          rms(c)
RMM:   1    -0.997100312786E+02   -0.16041E-01   -0.87404E-02    72   0.165E+00    0.948E-02
RMM:   2    -0.997105211038E+02   -0.48983E-03   -0.60179E-03    73   0.372E-01    0.679E-02
RMM:   3    -0.997105587956E+02   -0.37692E-04   -0.11825E-03    73   0.146E-01    0.226E-02
RMM:   4    -0.997105851450E+02   -0.26349E-04   -0.24777E-04    75   0.637E-02    0.136E-02
RMM:   5    -0.997105925066E+02   -0.73616E-05   -0.86826E-05    63   0.341E-02    0.733E-03
RMM:   6    -0.997105941628E+02   -0.16562E-05   -0.10526E-05    49   0.144E-02
     62 T=   400. E= -.99339003E+02 F= -.99710594E+02 E0= -.99712527E+02  EK= 0.77597E+00 SP= -.40E+00 SK= 0.38E-03
       N       E                     dE             d eps       ncg     rms          rms(c)
RMM:   1    -0.996545283947E+02    0.56064E-01   -0.85717E-02    72   0.167E+00    0.881E-02
RMM:   2    -0.996550252989E+02   -0.49690E-03   -0.55846E-03    73   0.394E-01    0.613E-02
RMM:   3    -0.996551042389E+02   -0.78940E-04   -0.10732E-03    74   0.149E-01    0.267E-02
RMM:   4    -0.996551250438E+02   -0.20805E-04   -0.24673E-04    74   0.660E-02    0.766E-03
RMM:   5    -0.996551299727E+02   -0.49289E-05   -0.53717E-05    59   0.308E-02    0.507E-03
RMM:   6    -0.996551308115E+02   -0.83876E-06   -0.65557E-06    47   0.117E-02
     63 T=   376. E= -.99336082E+02 F= -.99655131E+02 E0= -.99657063E+02  EK= 0.72878E+00 SP= -.41E+00 SK= 0.17E-02
       N       E                     dE             d eps       ncg     rms          rms(c)
RMM:   1    -0.995762292289E+02    0.78901E-01   -0.10542E-01    72   0.184E+00    0.114E-01
RMM:   2    -0.995766981759E+02   -0.46895E-03   -0.62071E-03    73   0.444E-01    0.798E-02
RMM:   3    -0.995767523989E+02   -0.54223E-04   -0.12471E-03    74   0.168E-01    0.289E-02
RMM:   4    -0.995767609203E+02   -0.85214E-05   -0.17641E-04    72   0.666E-02    0.153E-02
RMM:   5    -0.995767676077E+02   -0.66874E-05   -0.64019E-05    67   0.363E-02    0.483E-03
RMM:   6    -0.995767695373E+02   -0.19296E-05   -0.11764E-05    47   0.162E-02
     64 T=   343. E= -.99330175E+02 F= -.99576770E+02 E0= -.99578702E+02  EK= 0.66531E+00 SP= -.42E+00 SK= 0.51E-02
       N       E                     dE             d eps       ncg     rms          rms(c)
RMM:   1    -0.995618278087E+02    0.14940E-01   -0.11137E-01    72   0.195E+00    0.131E-01
RMM:   2    -0.995622996049E+02   -0.47180E-03   -0.75286E-03    72   0.461E-01    0.896E-02
RMM:   3    -0.995623588525E+02   -0.59248E-04   -0.18743E-03    72   0.199E-01    0.329E-02
RMM:   4    -0.995623843153E+02   -0.25463E-04   -0.42255E-04    78   0.864E-02    0.252E-02
RMM:   5    -0.995623919326E+02   -0.76173E-05   -0.85353E-05    70   0.405E-02    0.871E-03
RMM:   6    -0.995623910978E+02    0.83480E-06   -0.20303E-05    53   0.215E-02
     65 T=   343. E= -.99329026E+02 F= -.99562391E+02 E0= -.99564324E+02  EK= 0.66531E+00 SP= -.44E+00 SK= 0.11E-01
       N       E                     dE             d eps       ncg     rms          rms(c)
RMM:   1    -0.996232302108E+02   -0.60838E-01   -0.71654E-02    72   0.168E+00    0.102E-01
RMM:   2    -0.996235720796E+02   -0.34187E-03   -0.47906E-03    72   0.363E-01    0.661E-02
RMM:   3    -0.996236722389E+02   -0.10016E-03   -0.11999E-03    73   0.156E-01    0.275E-02
RMM:   4    -0.996236910091E+02   -0.18770E-04   -0.23271E-04    72   0.637E-02    0.165E-02
RMM:   5    -0.996236981580E+02   -0.71489E-05   -0.52846E-05    62   0.330E-02    0.523E-03
RMM:   6    -0.996236986319E+02   -0.47386E-06   -0.10204E-05    48   0.151E-02
     66 T=   381. E= -.99336257E+02 F= -.99623699E+02 E0= -.99625631E+02  EK= 0.73872E+00 SP= -.47E+00 SK= 0.19E-01
       N       E                     dE             d eps       ncg     rms          rms(c)
RMM:   1    -0.996574290321E+02   -0.33731E-01   -0.74302E-02    72   0.178E+00    0.964E-02
RMM:   2    -0.996577732721E+02   -0.34424E-03   -0.41760E-03    71   0.361E-01    0.612E-02
RMM:   3    -0.996578829542E+02   -0.10968E-03   -0.10026E-03    74   0.146E-01    0.334E-02
RMM:   4    -0.996579001025E+02   -0.17148E-04   -0.17375E-04    71   0.613E-02    0.855E-03
RMM:   5    -0.996579064799E+02   -0.63773E-05   -0.49335E-05    59   0.299E-02    0.431E-03
RMM:   6    -0.996579074447E+02   -0.96487E-06   -0.60883E-06    47   0.124E-02
     67 T=   409. E= -.99341504E+02 F= -.99657907E+02 E0= -.99659840E+02  EK= 0.79382E+00 SP= -.50E+00 SK= 0.24E-01
       N       E                     dE             d eps       ncg     rms          rms(c)
RMM:   1    -0.995983266332E+02    0.59580E-01   -0.12407E-01    72   0.216E+00    0.122E-01
RMM:   2    -0.995988125324E+02   -0.48590E-03   -0.62001E-03    72   0.461E-01    0.806E-02
RMM:   3    -0.995989135256E+02   -0.10099E-03   -0.12431E-03    75   0.175E-01    0.394E-02
RMM:   4    -0.995989300618E+02   -0.16536E-04   -0.17585E-04    72   0.700E-02    0.108E-02
RMM:   5    -0.995989384361E+02   -0.83743E-05   -0.53666E-05    62   0.344E-02    0.454E-03
RMM:   6    -0.995989424943E+02   -0.40582E-05   -0.10194E-05    47   0.154E-02
     68 T=   397. E= -.99336338E+02 F= -.99598942E+02 E0= -.99600875E+02  EK= 0.77013E+00 SP= -.54E+00 SK= 0.30E-01
       N       E                     dE             d eps       ncg     rms          rms(c)
RMM:   1    -0.995281423657E+02    0.70796E-01   -0.15064E-01    72   0.216E+00    0.164E-01
RMM:   2    -0.995286312859E+02   -0.48892E-03   -0.84713E-03    72   0.507E-01    0.112E-01
RMM:   3    -0.995286735303E+02   -0.42244E-04   -0.20246E-03    71   0.213E-01    0.349E-02
RMM:   4    -0.995286803719E+02   -0.68416E-05   -0.34014E-04    74   0.896E-02    0.253E-02
RMM:   5    -0.995286895145E+02   -0.91426E-05   -0.12607E-04    68   0.468E-02    0.101E-02
RMM:   6    -0.995286895334E+02   -0.18875E-07   -0.35458E-05    56   0.271E-02
     69 T=   381. E= -.99328691E+02 F= -.99528690E+02 E0= -.99530622E+02  EK= 0.73932E+00 SP= -.58E+00 SK= 0.39E-01
       N       E                     dE             d eps       ncg     rms          rms(c)
RMM:   1    -0.995544053443E+02   -0.25716E-01   -0.11852E-01    72   0.224E+00    0.120E-01
RMM:   2    -0.995550161646E+02   -0.61082E-03   -0.62565E-03    73   0.469E-01    0.808E-02
RMM:   3    -0.995551782317E+02   -0.16207E-03   -0.12003E-03    72   0.184E-01    0.289E-02
RMM:   4    -0.995552113459E+02   -0.33114E-04   -0.25172E-04    76   0.745E-02    0.107E-02
RMM:   5    -0.995552217196E+02   -0.10374E-04   -0.60836E-05    63   0.359E-02    0.460E-03
RMM:   6    -0.995552271802E+02   -0.54606E-05   -0.95194E-06    47   0.158E-02
     70 T=   413. E= -.99329976E+02 F= -.99555227E+02 E0= -.99557160E+02  EK= 0.80067E+00 SP= -.62E+00 SK= 0.49E-01
       N       E                     dE             d eps       ncg     rms          rms(c)
RMM:   1    -0.996578468438E+02   -0.10263E+00   -0.10088E-01    72   0.192E+00    0.115E-01
RMM:   2    -0.996583487320E+02   -0.50189E-03   -0.57491E-03    74   0.391E-01    0.814E-02
RMM:   3    -0.996584343394E+02   -0.85607E-04   -0.10579E-03    72   0.156E-01    0.267E-02
RMM:   4    -0.996584608566E+02   -0.26517E-04   -0.20373E-04    72   0.637E-02    0.166E-02
RMM:   5    -0.996584731439E+02   -0.12287E-04   -0.46611E-05    62   0.322E-02    0.504E-03
RMM:   6    -0.996584769524E+02   -0.38084E-05   -0.12327E-05    48   0.164E-02
     71 T=   486. E= -.99336409E+02 F= -.99658477E+02 E0= -.99660410E+02  EK= 0.94242E+00 SP= -.67E+00 SK= 0.54E-01
       N       E                     dE             d eps       ncg     rms          rms(c)
RMM:   1    -0.997433848115E+02   -0.84912E-01   -0.13293E-01    72   0.207E+00    0.129E-01
RMM:   2    -0.997439777707E+02   -0.59296E-03   -0.75361E-03    73   0.406E-01    0.931E-02
RMM:   3    -0.997440034466E+02   -0.25676E-04   -0.14227E-03    73   0.160E-01    0.351E-02
RMM:   4    -0.997440344272E+02   -0.30981E-04   -0.28629E-04    76   0.699E-02    0.176E-02
RMM:   5    -0.997440395273E+02   -0.51001E-05   -0.91437E-05    63   0.342E-02    0.740E-03
RMM:   6    -0.997440391512E+02    0.37611E-06   -0.10728E-05    48   0.152E-02
     72 T=   555. E= -.99341152E+02 F= -.99744039E+02 E0= -.99745972E+02  EK= 0.10765E+01 SP= -.72E+00 SK= 0.51E-01
       N       E                     dE             d eps       ncg     rms          rms(c)
RMM:   1    -0.997456594573E+02   -0.16199E-02   -0.13451E-01    72   0.219E+00    0.117E-01
RMM:   2    -0.997461814055E+02   -0.52195E-03   -0.64455E-03    73   0.427E-01    0.812E-02
RMM:   3    -0.997462344454E+02   -0.53040E-04   -0.11509E-03    75   0.160E-01    0.325E-02
RMM:   4    -0.997462561097E+02   -0.21664E-04   -0.18904E-04    72   0.635E-02    0.140E-02
RMM:   5    -0.997462634407E+02   -0.73311E-05   -0.59373E-05    61   0.319E-02    0.631E-03
RMM:   6    -0.997462669168E+02   -0.34761E-05   -0.81716E-06    47   0.140E-02
     73 T=   584. E= -.99342315E+02 F= -.99746267E+02 E0= -.99748200E+02  EK= 0.11328E+01 SP= -.77E+00 SK= 0.42E-01
       N       E                     dE             d eps       ncg     rms          rms(c)
RMM:   1    -0.996647289433E+02    0.81534E-01   -0.14881E-01    72   0.231E+00    0.131E-01
RMM:   2    -0.996653370824E+02   -0.60814E-03   -0.80362E-03    73   0.505E-01    0.870E-02
RMM:   3    -0.996654437553E+02   -0.10667E-03   -0.16754E-03    73   0.200E-01    0.340E-02
RMM:   4    -0.996654697842E+02   -0.26029E-04   -0.32281E-04    76   0.804E-02    0.184E-02
RMM:   5    -0.996654793008E+02   -0.95166E-05   -0.64230E-05    65   0.394E-02    0.534E-03
RMM:   6    -0.996654830867E+02   -0.37860E-05   -0.16108E-05    50   0.195E-02
     74 T=   571. E= -.99337711E+02 F= -.99665483E+02 E0= -.99667416E+02  EK= 0.11073E+01 SP= -.81E+00 SK= 0.35E-01
       N       E                     dE             d eps       ncg     rms          rms(c)
RMM:   1    -0.995822817896E+02    0.83198E-01   -0.17387E-01    72   0.252E+00    0.154E-01
RMM:   2    -0.995828852960E+02   -0.60351E-03   -0.88839E-03    73   0.555E-01    0.107E-01
RMM:   3    -0.995829096128E+02   -0.24317E-04   -0.16475E-03    71   0.217E-01    0.350E-02
RMM:   4    -0.995829320585E+02   -0.22446E-04   -0.34317E-04    77   0.854E-02    0.239E-02
RMM:   5    -0.995829395895E+02   -0.75310E-05   -0.77431E-05    68   0.427E-02    0.735E-03
RMM:   6    -0.995829404122E+02   -0.82275E-06   -0.16959E-05    49   0.215E-02
     75 T=   555. E= -.99331171E+02 F= -.99582940E+02 E0= -.99584873E+02  EK= 0.10755E+01 SP= -.85E+00 SK= 0.29E-01
       N       E                     dE             d eps       ncg     rms          rms(c)
RMM:   1    -0.995882692313E+02   -0.53296E-02   -0.14498E-01    72   0.246E+00    0.142E-01
RMM:   2    -0.995887985343E+02   -0.52930E-03   -0.71428E-03    73   0.485E-01    0.100E-01
RMM:   3    -0.995888436817E+02   -0.45147E-04   -0.14310E-03    71   0.193E-01    0.267E-02
RMM:   4    -0.995888656770E+02   -0.21995E-04   -0.26004E-04    77   0.734E-02    0.200E-02
RMM:   5    -0.995888734919E+02   -0.78149E-05   -0.76512E-05    67   0.400E-02    0.657E-03
RMM:   6    -0.995888735905E+02   -0.98680E-07   -0.16466E-05    49   0.186E-02
     76 T=   577. E= -.99333564E+02 F= -.99588874E+02 E0= -.99590806E+02  EK= 0.11197E+01 SP= -.89E+00 SK= 0.25E-01
       N       E                     dE             d eps       ncg     rms          rms(c)
RMM:   1    -0.996434769250E+02   -0.54603E-01   -0.92428E-02    72   0.205E+00    0.116E-01
RMM:   2    -0.996439091798E+02   -0.43225E-03   -0.51992E-03    73   0.395E-01    0.781E-02
RMM:   3    -0.996440607392E+02   -0.15156E-03   -0.13846E-03    75   0.165E-01    0.261E-02
RMM:   4    -0.996440793497E+02   -0.18611E-04   -0.21280E-04    74   0.639E-02    0.146E-02
RMM:   5    -0.996440880322E+02   -0.86825E-05   -0.64638E-05    58   0.320E-02    0.427E-03
RMM:   6    -0.996440907389E+02   -0.27067E-05   -0.10256E-05    48   0.141E-02
     77 T=   621. E= -.99344046E+02 F= -.99644091E+02 E0= -.99646023E+02  EK= 0.12033E+01 SP= -.92E+00 SK= 0.18E-01
       N       E                     dE             d eps       ncg     rms          rms(c)
RMM:   1    -0.996106837546E+02    0.33404E-01   -0.10875E-01    72   0.220E+00    0.110E-01
RMM:   2    -0.996111593746E+02   -0.47562E-03   -0.57193E-03    72   0.430E-01    0.714E-02
RMM:   3    -0.996112908818E+02   -0.13151E-03   -0.12620E-03    74   0.165E-01    0.381E-02
RMM:   4    -0.996113226723E+02   -0.31790E-04   -0.25564E-04    74   0.689E-02    0.139E-02
RMM:   5    -0.996113313212E+02   -0.86489E-05   -0.46934E-05    62   0.327E-02    0.445E-03
RMM:   6    -0.996113350568E+02   -0.37357E-05   -0.11279E-05    48   0.149E-02
     78 T=   619. E= -.99347377E+02 F= -.99611335E+02 E0= -.99613268E+02  EK= 0.12003E+01 SP= -.95E+00 SK= 0.10E-01
       N       E                     dE             d eps       ncg     rms          rms(c)
RMM:   1    -0.994602053812E+02    0.15113E+00   -0.16867E-01    72   0.255E+00    0.124E-01
RMM:   2    -0.994609513789E+02   -0.74600E-03   -0.96124E-03    72   0.569E-01    0.806E-02
RMM:   3    -0.994611028003E+02   -0.15142E-03   -0.19849E-03    74   0.214E-01    0.534E-02
RMM:   4    -0.994611242186E+02   -0.21418E-04   -0.31690E-04    72   0.894E-02    0.185E-02
RMM:   5    -0.994611390049E+02   -0.14786E-04   -0.96786E-05    70   0.459E-02    0.677E-03
RMM:   6    -0.994611456275E+02   -0.66227E-05   -0.19884E-05    51   0.211E-02
     79 T=   559. E= -.99337495E+02 F= -.99461146E+02 E0= -.99463078E+02  EK= 0.10841E+01 SP= -.97E+00 SK= 0.63E-02
       N       E                     dE             d eps       ncg     rms          rms(c)
RMM:   1    -0.993456461273E+02    0.11549E+00   -0.23425E-01    72   0.284E+00    0.185E-01
RMM:   2    -0.993466604413E+02   -0.10143E-02   -0.13585E-02    73   0.616E-01    0.128E-01
RMM:   3    -0.993468510625E+02   -0.19062E-03   -0.31849E-03    74   0.244E-01    0.426E-02
RMM:   4    -0.993468868395E+02   -0.35777E-04   -0.47496E-04    75   0.972E-02    0.217E-02
RMM:   5    -0.993468881786E+02   -0.13391E-05   -0.12552E-04    68   0.489E-02    0.590E-03
RMM:   6    -0.993468911898E+02   -0.30112E-05   -0.34152E-05    52   0.230E-02
     80 T=   514. E= -.99327858E+02 F= -.99346891E+02 E0= -.99348824E+02  EK= 0.99716E+00 SP= -.98E+00 SK= 0.52E-02
       N       E                     dE             d eps       ncg     rms          rms(c)
RMM:   1    -0.994027702348E+02   -0.55882E-01   -0.11946E-01    72   0.229E+00    0.110E-01
RMM:   2    -0.994033971791E+02   -0.62694E-03   -0.67692E-03    74   0.483E-01    0.734E-02
RMM:   3    -0.994035672039E+02   -0.17002E-03   -0.14063E-03    73   0.183E-01    0.308E-02
RMM:   4    -0.994036139667E+02   -0.46763E-04   -0.35710E-04    80   0.777E-02    0.106E-02
RMM:   5    -0.994036225215E+02   -0.85547E-05   -0.44243E-05    59   0.316E-02    0.455E-03
RMM:   6    -0.994036283680E+02   -0.58466E-05   -0.80100E-06    47   0.139E-02
     81 T=   549. E= -.99333714E+02 F= -.99403628E+02 E0= -.99405561E+02  EK= 0.10639E+01 SP= -.10E+01 SK= 0.44E-02
       N       E                     dE             d eps       ncg     rms          rms(c)
RMM:   1    -0.995437534993E+02   -0.14013E+00   -0.93351E-02    72   0.195E+00    0.968E-02
RMM:   2    -0.995443061381E+02   -0.55264E-03   -0.61198E-03    74   0.404E-01    0.693E-02
RMM:   3    -0.995444121795E+02   -0.10604E-03   -0.12279E-03    74   0.157E-01    0.351E-02
RMM:   4    -0.995444511783E+02   -0.38999E-04   -0.27117E-04    77   0.698E-02    0.152E-02
RMM:   5    -0.995444607967E+02   -0.96183E-05   -0.51925E-05    60   0.300E-02    0.623E-03
RMM:   6    -0.995444662348E+02   -0.54382E-05   -0.96344E-06    48   0.146E-02
     82 T=   623. E= -.99344660E+02 F= -.99544466E+02 E0= -.99546399E+02  EK= 0.12083E+01 SP= -.10E+01 SK= 0.20E-02
       N       E                     dE             d eps       ncg     rms          rms(c)
RMM:   1    -0.996055422482E+02   -0.61081E-01   -0.16815E-01    72   0.234E+00    0.138E-01
RMM:   2    -0.996066210046E+02   -0.10788E-02   -0.13101E-02    76   0.498E-01    0.100E-01
RMM:   3    -0.996066922332E+02   -0.71229E-04   -0.23098E-03    73   0.199E-01    0.458E-02
RMM:   4    -0.996067550057E+02   -0.62773E-04   -0.63347E-04    79   0.902E-02    0.238E-02
RMM:   5    -0.996067607242E+02   -0.57185E-05   -0.88607E-05    68   0.381E-02    0.106E-02
RMM:   6    -0.996067640822E+02   -0.33579E-05   -0.16883E-05    49   0.195E-02
     83 T=   658. E= -.99347232E+02 F= -.99606764E+02 E0= -.99608697E+02  EK= 0.12760E+01 SP= -.10E+01 SK= 0.89E-04
       N       E                     dE             d eps       ncg     rms          rms(c)
RMM:   1    -0.995422338765E+02    0.64527E-01   -0.17236E-01    72   0.233E+00    0.145E-01
RMM:   2    -0.995429778853E+02   -0.74401E-03   -0.10917E-02    75   0.531E-01    0.966E-02
RMM:   3    -0.995430102419E+02   -0.32357E-04   -0.21016E-03    73   0.213E-01    0.370E-02
RMM:   4    -0.995430512880E+02   -0.41046E-04   -0.45362E-04    78   0.878E-02    0.261E-02
RMM:   5    -0.995430631812E+02   -0.11893E-04   -0.95574E-05    69   0.447E-02    0.906E-03
RMM:   6    -0.995430640654E+02   -0.88422E-06   -0.22265E-05    52   0.240E-02
     84 T=   626. E= -.99343243E+02 F= -.99543064E+02 E0= -.99544997E+02  EK= 0.12139E+01 SP= -.10E+01 SK= 0.68E-03
       N       E                     dE             d eps       ncg     rms          rms(c)
RMM:   1    -0.994043101461E+02    0.13875E+00   -0.14926E-01    72   0.210E+00    0.116E-01
RMM:   2    -0.994052958949E+02   -0.98575E-03   -0.11425E-02    75   0.533E-01    0.773E-02
RMM:   3    -0.994054738084E+02   -0.17791E-03   -0.24545E-03    75   0.210E-01    0.361E-02
RMM:   4    -0.994055169620E+02   -0.43154E-04   -0.50136E-04    76   0.867E-02    0.177E-02
RMM:   5    -0.994055243633E+02   -0.74012E-05   -0.80509E-05    67   0.415E-02    0.689E-03
RMM:   6    -0.994055265239E+02   -0.21606E-05   -0.15217E-05    50   0.191E-02
     85 T=   553. E= -.99337945E+02 F= -.99405527E+02 E0= -.99407459E+02  EK= 0.10718E+01 SP= -.10E+01 SK= 0.23E-02
       N       E                     dE             d eps       ncg     rms          rms(c)
RMM:   1    -0.992746470051E+02    0.13088E+00   -0.13609E-01    72   0.207E+00    0.111E-01
RMM:   2    -0.992753995811E+02   -0.75258E-03   -0.91038E-03    74   0.504E-01    0.794E-02
RMM:   3    -0.992755197459E+02   -0.12016E-03   -0.18279E-03    75   0.189E-01    0.457E-02
RMM:   4    -0.992755368818E+02   -0.17136E-04   -0.37635E-04    75   0.844E-02    0.128E-02
RMM:   5    -0.992755473938E+02   -0.10512E-04   -0.10258E-04    68   0.396E-02    0.796E-03
RMM:   6    -0.992755497810E+02   -0.23871E-05   -0.10675E-05    49   0.145E-02
     86 T=   482. E= -.99333550E+02 F= -.99275550E+02 E0= -.99277482E+02  EK= 0.93472E+00 SP= -.10E+01 SK= 0.28E-02
       N       E                     dE             d eps       ncg     rms          rms(c)
RMM:   1    -0.992166372563E+02    0.58910E-01   -0.12545E-01    72   0.205E+00    0.129E-01
RMM:   2    -0.992171117898E+02   -0.47453E-03   -0.79586E-03    73   0.482E-01    0.876E-02
RMM:   3    -0.992171761406E+02   -0.64351E-04   -0.18021E-03    73   0.194E-01    0.404E-02
RMM:   4    -0.992172065574E+02   -0.30417E-04   -0.42422E-04    77   0.860E-02    0.260E-02
RMM:   5    -0.992172100211E+02   -0.34637E-05   -0.66676E-05    68   0.386E-02    0.749E-03
RMM:   6    -0.992172125457E+02   -0.25246E-05   -0.15022E-05    48   0.178E-02
     87 T=   446. E= -.99335129E+02 F= -.99217213E+02 E0= -.99219145E+02  EK= 0.86483E+00 SP= -.98E+00 SK= 0.20E-02
       N       E                     dE             d eps       ncg     rms          rms(c)
RMM:   1    -0.992059209212E+02    0.11289E-01   -0.72397E-02    72   0.153E+00    0.978E-02
RMM:   2    -0.992062774265E+02   -0.35651E-03   -0.53681E-03    74   0.383E-01    0.612E-02
RMM:   3    -0.992063753707E+02   -0.97944E-04   -0.13987E-03    78   0.157E-01    0.317E-02
RMM:   4    -0.992063836917E+02   -0.83210E-05   -0.14592E-04    72   0.594E-02    0.185E-02
RMM:   5    -0.992063933479E+02   -0.96563E-05   -0.48573E-05    64   0.325E-02    0.577E-03
RMM:   6    -0.992063959641E+02   -0.26162E-05   -0.11899E-05    47   0.159E-02
     88 T=   433. E= -.99341796E+02 F= -.99206396E+02 E0= -.99208329E+02  EK= 0.83963E+00 SP= -.98E+00 SK= 0.11E-02
       N       E                     dE             d eps       ncg     rms          rms(c)
RMM:   1    -0.991500289042E+02    0.56364E-01   -0.69616E-02    72   0.154E+00    0.927E-02
RMM:   2    -0.991503422972E+02   -0.31339E-03   -0.42639E-03    73   0.374E-01    0.579E-02
RMM:   3    -0.991504183568E+02   -0.76060E-04   -0.99945E-04    77   0.144E-01    0.298E-02
RMM:   4    -0.991504286581E+02   -0.10301E-04   -0.16804E-04    74   0.577E-02    0.127E-02
RMM:   5    -0.991504339495E+02   -0.52914E-05   -0.31245E-05    59   0.269E-02    0.506E-03
RMM:   6    -0.991504370057E+02   -0.30562E-05   -0.74812E-06    48   0.128E-02
     89 T=   401. E= -.99343363E+02 F= -.99150437E+02 E0= -.99152370E+02  EK= 0.77713E+00 SP= -.97E+00 SK= 0.36E-03
       N       E                     dE             d eps       ncg     rms          rms(c)
RMM:   1    -0.990327227065E+02    0.11771E+00   -0.10749E-01    72   0.183E+00    0.103E-01
RMM:   2    -0.990332113377E+02   -0.48863E-03   -0.63461E-03    72   0.472E-01    0.662E-02
RMM:   3    -0.990333156547E+02   -0.10432E-03   -0.13834E-03    75   0.175E-01    0.353E-02
RMM:   4    -0.990333251301E+02   -0.94754E-05   -0.19952E-04    73   0.717E-02    0.120E-02
RMM:   5    -0.990333316341E+02   -0.65040E-05   -0.62268E-05    64   0.354E-02    0.509E-03
RMM:   6    -0.990333331135E+02   -0.14793E-05   -0.10607E-05    49   0.152E-02
     90 T=   344. E= -.99335292E+02 F= -.99033333E+02 E0= -.99035266E+02  EK= 0.66709E+00 SP= -.97E+00 SK= 0.47E-04
       N       E                     dE             d eps       ncg     rms          rms(c)
RMM:   1    -0.989772225785E+02    0.56109E-01   -0.14895E-01    72   0.212E+00    0.159E-01
RMM:   2    -0.989777665921E+02   -0.54401E-03   -0.90923E-03    73   0.525E-01    0.102E-01
RMM:   3    -0.989778469846E+02   -0.80392E-04   -0.21323E-03    75   0.204E-01    0.327E-02
RMM:   4    -0.989778700243E+02   -0.23040E-04   -0.31504E-04    73   0.813E-02    0.183E-02
RMM:   5    -0.989778796467E+02   -0.96224E-05   -0.10821E-04    68   0.417E-02    0.581E-03
RMM:   6    -0.989778815170E+02   -0.18703E-05   -0.16496E-05    51   0.188E-02
     91 T=   321. E= -.99328897E+02 F= -.98977882E+02 E0= -.98979814E+02  EK= 0.62171E+00 SP= -.97E+00 SK= 0.20E-02
       N       E                     dE             d eps       ncg     rms          rms(c)
RMM:   1    -0.990720758428E+02   -0.94196E-01   -0.71477E-02    72   0.161E+00    0.109E-01
RMM:   2    -0.990724009480E+02   -0.32511E-03   -0.48477E-03    75   0.397E-01    0.682E-02
RMM:   3    -0.990724805585E+02   -0.79610E-04   -0.11493E-03    72   0.162E-01    0.280E-02
RMM:   4    -0.990725026411E+02   -0.22083E-04   -0.25210E-04    79   0.684E-02    0.174E-02
RMM:   5    -0.990725093742E+02   -0.67331E-05   -0.46145E-05    64   0.329E-02    0.640E-03
RMM:   6    -0.990725104358E+02   -0.10617E-05   -0.10406E-05    48   0.166E-02
     92 T=   371. E= -.99335383E+02 F= -.99072510E+02 E0= -.99074443E+02  EK= 0.71909E+00 SP= -.99E+00 SK= 0.62E-02
       N       E                     dE             d eps       ncg     rms          rms(c)
RMM:   1    -0.992277152274E+02   -0.15521E+00   -0.11798E-01    72   0.212E+00    0.130E-01
RMM:   2    -0.992281993854E+02   -0.48416E-03   -0.74968E-03    74   0.467E-01    0.914E-02
RMM:   3    -0.992282525134E+02   -0.53128E-04   -0.16529E-03    73   0.194E-01    0.428E-02
RMM:   4    -0.992282757753E+02   -0.23262E-04   -0.28660E-04    78   0.808E-02    0.279E-02
RMM:   5    -0.992282830228E+02   -0.72475E-05   -0.71838E-05    67   0.411E-02    0.797E-03
RMM:   6    -0.992282837281E+02   -0.70532E-06   -0.22759E-05    54   0.232E-02
     93 T=   456. E= -.99341560E+02 F= -.99228284E+02 E0= -.99230216E+02  EK= 0.88484E+00 SP= -.10E+01 SK= 0.92E-02
       N       E                     dE             d eps       ncg     rms          rms(c)
RMM:   1    -0.993438081207E+02   -0.11553E+00   -0.18726E-01    72   0.258E+00    0.170E-01
RMM:   2    -0.993444277227E+02   -0.61960E-03   -0.10689E-02    73   0.547E-01    0.119E-01
RMM:   3    -0.993444301093E+02   -0.23866E-05   -0.25347E-03    73   0.228E-01    0.442E-02
RMM:   4    -0.993444602290E+02   -0.30120E-04   -0.43532E-04    76   0.938E-02    0.313E-02
RMM:   5    -0.993444679982E+02   -0.77693E-05   -0.11804E-04    71   0.495E-02    0.106E-02
RMM:   6    -0.993444680780E+02   -0.79799E-07   -0.33796E-05    56   0.282E-02
[...]
RMM:   4    -0.993533439267E+02   -0.32312E-04   -0.32115E-04    73   0.757E-02    0.100E-02
RMM:   5    -0.993533543442E+02   -0.10417E-04   -0.87722E-05    66   0.371E-02    0.566E-03
RMM:   6    -0.993533574709E+02   -0.31267E-05   -0.89603E-06    49   0.147E-02
    274 T=   462. E= -.99341002E+02 F= -.99353357E+02 E0= -.99355290E+02  EK= 0.89656E+00 SP= -.10E+01 SK= 0.12E+00
       N       E                     dE             d eps       ncg     rms          rms(c)
RMM:   1    -0.993610451775E+02   -0.76908E-02   -0.11593E-01    72   0.187E+00    0.126E-01
RMM:   2    -0.993616179202E+02   -0.57274E-03   -0.79514E-03    75   0.465E-01    0.862E-02
RMM:   3    -0.993616886254E+02   -0.70705E-04   -0.17428E-03    72   0.189E-01    0.274E-02
RMM:   4    -0.993617202117E+02   -0.31586E-04   -0.35471E-04    78   0.814E-02    0.196E-02
RMM:   5    -0.993617300171E+02   -0.98054E-05   -0.72876E-05    67   0.406E-02    0.688E-03
RMM:   6    -0.993617311778E+02   -0.11607E-05   -0.17648E-05    50   0.215E-02
    275 T=   432. E= -.99340215E+02 F= -.99361731E+02 E0= -.99363664E+02  EK= 0.83751E+00 SP= -.93E+00 SK= 0.12E+00
       N       E                     dE             d eps       ncg     rms          rms(c)
RMM:   1    -0.993943276296E+02   -0.32598E-01   -0.92987E-02    72   0.169E+00    0.113E-01
RMM:   2    -0.993948294969E+02   -0.50187E-03   -0.71723E-03    75   0.433E-01    0.749E-02
RMM:   3    -0.993949067783E+02   -0.77281E-04   -0.15652E-03    73   0.180E-01    0.325E-02
RMM:   4    -0.993949411239E+02   -0.34346E-04   -0.35921E-04    76   0.809E-02    0.204E-02
RMM:   5    -0.993949526423E+02   -0.11518E-04   -0.74240E-05    67   0.384E-02    0.689E-03
RMM:   6    -0.993949558197E+02   -0.31774E-05   -0.15606E-05    48   0.196E-02
    276 T=   415. E= -.99343223E+02 F= -.99394956E+02 E0= -.99396888E+02  EK= 0.80518E+00 SP= -.86E+00 SK= 0.11E+00
       N       E                     dE             d eps       ncg     rms          rms(c)
RMM:   1    -0.994103169807E+02   -0.15364E-01   -0.74044E-02    72   0.148E+00    0.871E-02
RMM:   2    -0.994107751761E+02   -0.45820E-03   -0.55041E-03    73   0.395E-01    0.570E-02
RMM:   3    -0.994108554141E+02   -0.80238E-04   -0.11235E-03    73   0.154E-01    0.271E-02
RMM:   4    -0.994108827251E+02   -0.27311E-04   -0.29811E-04    80   0.731E-02    0.131E-02
RMM:   5    -0.994108894272E+02   -0.67021E-05   -0.43033E-05    59   0.304E-02    0.497E-03
RMM:   6    -0.994108918832E+02   -0.24559E-05   -0.73094E-06    47   0.136E-02
    277 T=   394. E= -.99343450E+02 F= -.99410892E+02 E0= -.99412825E+02  EK= 0.76365E+00 SP= -.79E+00 SK= 0.94E-01
       N       E                     dE             d eps       ncg     rms          rms(c)
RMM:   1    -0.993983869934E+02    0.12502E-01   -0.11542E-01    72   0.187E+00    0.122E-01
RMM:   2    -0.993989902799E+02   -0.60329E-03   -0.76317E-03    72   0.472E-01    0.787E-02
RMM:   3    -0.993991282582E+02   -0.13798E-03   -0.18501E-03    75   0.184E-01    0.353E-02
RMM:   4    -0.993991496910E+02   -0.21433E-04   -0.28045E-04    72   0.822E-02    0.101E-02
RMM:   5    -0.993991626018E+02   -0.12911E-04   -0.11023E-04    68   0.426E-02    0.717E-03
RMM:   6    -0.993991652563E+02   -0.26544E-05   -0.10427E-05    47   0.150E-02
    278 T=   364. E= -.99339581E+02 F= -.99399165E+02 E0= -.99401098E+02  EK= 0.70616E+00 SP= -.73E+00 SK= 0.79E-01
       N       E                     dE             d eps       ncg     rms          rms(c)
RMM:   1    -0.994077503535E+02   -0.85878E-02   -0.11156E-01    72   0.181E+00    0.113E-01
RMM:   2    -0.994083865952E+02   -0.63624E-03   -0.77733E-03    73   0.467E-01    0.753E-02
RMM:   3    -0.994085037328E+02   -0.11714E-03   -0.17234E-03    74   0.177E-01    0.339E-02
RMM:   4    -0.994085240863E+02   -0.20354E-04   -0.29262E-04    74   0.792E-02    0.101E-02
RMM:   5    -0.994085352630E+02   -0.11177E-04   -0.10908E-04    68   0.397E-02    0.680E-03
RMM:   6    -0.994085369738E+02   -0.17108E-05   -0.86238E-06    47   0.132E-02
    279 T=   348. E= -.99337828E+02 F= -.99408537E+02 E0= -.99410470E+02  EK= 0.67558E+00 SP= -.67E+00 SK= 0.63E-01
       N       E                     dE             d eps       ncg     rms          rms(c)
RMM:   1    -0.994674198182E+02   -0.58885E-01   -0.88496E-02    72   0.158E+00    0.968E-02
RMM:   2    -0.994679808344E+02   -0.56102E-03   -0.66069E-03    74   0.416E-01    0.657E-02
RMM:   3    -0.994680721669E+02   -0.91332E-04   -0.13362E-03    75   0.159E-01    0.271E-02
RMM:   4    -0.994680949159E+02   -0.22749E-04   -0.26254E-04    72   0.730E-02    0.102E-02
RMM:   5    -0.994681045062E+02   -0.95904E-05   -0.91461E-05    66   0.369E-02    0.567E-03
RMM:   6    -0.994681066397E+02   -0.21335E-05   -0.91794E-06    48   0.136E-02
    280 T=   360. E= -.99338815E+02 F= -.99468107E+02 E0= -.99470040E+02  EK= 0.69761E+00 SP= -.62E+00 SK= 0.48E-01
       N       E                     dE             d eps       ncg     rms          rms(c)
RMM:   1    -0.995638300165E+02   -0.95726E-01   -0.96299E-02    72   0.172E+00    0.118E-01
RMM:   2    -0.995643266388E+02   -0.49662E-03   -0.68307E-03    73   0.434E-01    0.790E-02
RMM:   3    -0.995644278917E+02   -0.10125E-03   -0.16694E-03    73   0.181E-01    0.332E-02
RMM:   4    -0.995644505328E+02   -0.22641E-04   -0.31064E-04    76   0.833E-02    0.173E-02
RMM:   5    -0.995644579972E+02   -0.74644E-05   -0.85327E-05    65   0.406E-02    0.656E-03
RMM:   6    -0.995644590696E+02   -0.10724E-05   -0.13615E-05    50   0.173E-02
    281 T=   391. E= -.99340545E+02 F= -.99564459E+02 E0= -.99566399E+02  EK= 0.75804E+00 SP= -.57E+00 SK= 0.37E-01
       N       E                     dE             d eps       ncg     rms          rms(c)
RMM:   1    -0.996654784121E+02   -0.10102E+00   -0.88721E-02    72   0.162E+00    0.115E-01
RMM:   2    -0.996659143329E+02   -0.43592E-03   -0.68428E-03    74   0.418E-01    0.766E-02
RMM:   3    -0.996659659053E+02   -0.51572E-04   -0.15671E-03    73   0.177E-01    0.311E-02
RMM:   4    -0.996659848424E+02   -0.18937E-04   -0.26886E-04    76   0.769E-02    0.221E-02
RMM:   5    -0.996659921528E+02   -0.73104E-05   -0.78376E-05    66   0.393E-02    0.789E-03
RMM:   6    -0.996659926442E+02   -0.49140E-06   -0.16874E-05    51   0.189E-02
    282 T=   425. E= -.99342310E+02 F= -.99665993E+02 E0= -.99667959E+02  EK= 0.82445E+00 SP= -.53E+00 SK= 0.30E-01
       N       E                     dE             d eps       ncg     rms          rms(c)
RMM:   1    -0.997375986026E+02   -0.71606E-01   -0.81836E-02    72   0.160E+00    0.106E-01
RMM:   2    -0.997379895163E+02   -0.39091E-03   -0.57183E-03    73   0.402E-01    0.714E-02
RMM:   3    -0.997380271151E+02   -0.37599E-04   -0.13093E-03    74   0.162E-01    0.284E-02
RMM:   4    -0.997380446446E+02   -0.17529E-04   -0.19913E-04    75   0.667E-02    0.176E-02
RMM:   5    -0.997380519453E+02   -0.73007E-05   -0.55430E-05    64   0.329E-02    0.529E-03
RMM:   6    -0.997380540570E+02   -0.21117E-05   -0.11323E-05    47   0.160E-02
    283 T=   445. E= -.99343266E+02 F= -.99738054E+02 E0= -.99740053E+02  EK= 0.86277E+00 SP= -.49E+00 SK= 0.26E-01
       N       E                     dE             d eps       ncg     rms          rms(c)
RMM:   1    -0.997605104953E+02   -0.22459E-01   -0.77708E-02    72   0.152E+00    0.870E-02
RMM:   2    -0.997610350718E+02   -0.52458E-03   -0.59648E-03    75   0.386E-01    0.622E-02
RMM:   3    -0.997610961316E+02   -0.61060E-04   -0.10523E-03    73   0.144E-01    0.351E-02
RMM:   4    -0.997611030690E+02   -0.69375E-05   -0.23429E-04    73   0.704E-02    0.763E-03
RMM:   5    -0.997611095844E+02   -0.65154E-05   -0.72665E-05    62   0.344E-02    0.713E-03
RMM:   6    -0.997611100259E+02   -0.44150E-06   -0.10073E-05    48   0.140E-02
    284 T=   442. E= -.99341506E+02 F= -.99761110E+02 E0= -.99763091E+02  EK= 0.85637E+00 SP= -.46E+00 SK= 0.23E-01
       N       E                     dE             d eps       ncg     rms          rms(c)
RMM:   1    -0.997565419685E+02    0.45676E-02   -0.89986E-02    72   0.159E+00    0.109E-01
RMM:   2    -0.997570262276E+02   -0.48426E-03   -0.69536E-03    76   0.410E-01    0.746E-02
RMM:   3    -0.997570768217E+02   -0.50594E-04   -0.13660E-03    71   0.166E-01    0.297E-02
RMM:   4    -0.997570969767E+02   -0.20155E-04   -0.28950E-04    75   0.756E-02    0.198E-02
RMM:   5    -0.997571011266E+02   -0.41500E-05   -0.71389E-05    64   0.364E-02    0.696E-03
RMM:   6    -0.997571022003E+02   -0.10736E-05   -0.23925E-05    54   0.204E-02
    285 T=   427. E= -.99338392E+02 F= -.99757102E+02 E0= -.99759050E+02  EK= 0.82742E+00 SP= -.43E+00 SK= 0.19E-01
       N       E                     dE             d eps       ncg     rms          rms(c)
RMM:   1    -0.997690288001E+02   -0.11928E-01   -0.87940E-02    72   0.155E+00    0.109E-01
RMM:   2    -0.997695810347E+02   -0.55223E-03   -0.76116E-03    75   0.392E-01    0.702E-02
RMM:   3    -0.997696781112E+02   -0.97077E-04   -0.16939E-03    75   0.166E-01    0.306E-02
RMM:   4    -0.997697052885E+02   -0.27177E-04   -0.34777E-04    72   0.732E-02    0.203E-02
RMM:   5    -0.997697114139E+02   -0.61253E-05   -0.77024E-05    61   0.342E-02    0.633E-03
RMM:   6    -0.997697136224E+02   -0.22085E-05   -0.25873E-05    52   0.192E-02
    286 T=   420. E= -.99338695E+02 F= -.99769714E+02 E0= -.99771650E+02  EK= 0.81523E+00 SP= -.40E+00 SK= 0.15E-01
       N       E                     dE             d eps       ncg     rms          rms(c)
RMM:   1    -0.997930882044E+02   -0.23377E-01   -0.47577E-02    72   0.123E+00    0.692E-02
RMM:   2    -0.997934444907E+02   -0.35629E-03   -0.42023E-03    75   0.299E-01    0.447E-02
RMM:   3    -0.997935127405E+02   -0.68250E-04   -0.87645E-04    73   0.124E-01    0.213E-02
RMM:   4    -0.997935328708E+02   -0.20130E-04   -0.20209E-04    72   0.549E-02    0.131E-02
RMM:   5    -0.997935381328E+02   -0.52620E-05   -0.32351E-05    55   0.256E-02    0.388E-03
RMM:   6    -0.997935396713E+02   -0.15385E-05   -0.88321E-06    48   0.127E-02
    287 T=   420. E= -.99342622E+02 F= -.99793540E+02 E0= -.99795473E+02  EK= 0.81358E+00 SP= -.37E+00 SK= 0.12E-01
       N       E                     dE             d eps       ncg     rms          rms(c)
RMM:   1    -0.997721150327E+02    0.21423E-01   -0.50470E-02    72   0.126E+00    0.781E-02
RMM:   2    -0.997724887006E+02   -0.37367E-03   -0.43476E-03    76   0.306E-01    0.533E-02
RMM:   3    -0.997725276412E+02   -0.38941E-04   -0.67818E-04    72   0.119E-01    0.211E-02
RMM:   4    -0.997725409946E+02   -0.13353E-04   -0.14306E-04    71   0.516E-02    0.110E-02
RMM:   5    -0.997725441584E+02   -0.31637E-05   -0.34957E-05    57   0.253E-02    0.428E-03
RMM:   6    -0.997725451336E+02   -0.97526E-06   -0.74315E-06    48   0.120E-02
    288 T=   399. E= -.99343900E+02 F= -.99772545E+02 E0= -.99774478E+02  EK= 0.77311E+00 SP= -.35E+00 SK= 0.81E-02
       N       E                     dE             d eps       ncg     rms          rms(c)
RMM:   1    -0.996838808948E+02    0.88663E-01   -0.78127E-02    72   0.150E+00    0.107E-01
RMM:   2    -0.996842733766E+02   -0.39248E-03   -0.54237E-03    75   0.363E-01    0.718E-02
RMM:   3    -0.996843295293E+02   -0.56153E-04   -0.11048E-03    73   0.140E-01    0.269E-02
RMM:   4    -0.996843428166E+02   -0.13287E-04   -0.19769E-04    74   0.603E-02    0.102E-02
RMM:   5    -0.996843468300E+02   -0.40134E-05   -0.62925E-05    60   0.297E-02    0.507E-03
RMM:   6    -0.996843468949E+02   -0.64918E-07   -0.48954E-06    47   0.110E-02
    289 T=   348. E= -.99341064E+02 F= -.99684347E+02 E0= -.99686280E+02  EK= 0.67473E+00 SP= -.34E+00 SK= 0.42E-02
       N       E                     dE             d eps       ncg     rms          rms(c)
RMM:   1    -0.995696596469E+02    0.11469E+00   -0.84047E-02    72   0.160E+00    0.103E-01
RMM:   2    -0.995700513452E+02   -0.39170E-03   -0.52927E-03    73   0.396E-01    0.710E-02
RMM:   3    -0.995700918892E+02   -0.40544E-04   -0.11172E-03    74   0.153E-01    0.267E-02
RMM:   4    -0.995701026477E+02   -0.10759E-04   -0.17458E-04    73   0.629E-02    0.135E-02
RMM:   5    -0.995701054863E+02   -0.28386E-05   -0.55960E-05    61   0.337E-02    0.451E-03
RMM:   6    -0.995701068901E+02   -0.14038E-05   -0.12488E-05    49   0.156E-02
    290 T=   287. E= -.99337730E+02 F= -.99570107E+02 E0= -.99572040E+02  EK= 0.55741E+00 SP= -.33E+00 SK= 0.68E-03
       N       E                     dE             d eps       ncg     rms          rms(c)
RMM:   1    -0.994869752191E+02    0.83130E-01   -0.79449E-02    72   0.154E+00    0.102E-01
RMM:   2    -0.994873572034E+02   -0.38198E-03   -0.52936E-03    74   0.393E-01    0.707E-02
RMM:   3    -0.994873847904E+02   -0.27587E-04   -0.10645E-03    73   0.156E-01    0.252E-02
RMM:   4    -0.994873965900E+02   -0.11800E-04   -0.17963E-04    74   0.649E-02    0.166E-02
RMM:   5    -0.994874032433E+02   -0.66533E-05   -0.70097E-05    65   0.369E-02    0.611E-03
RMM:   6    -0.994874037295E+02   -0.48618E-06   -0.13592E-05    48   0.191E-02
    291 T=   246. E= -.99335509E+02 F= -.99487404E+02 E0= -.99489336E+02  EK= 0.47686E+00 SP= -.33E+00 SK= 0.62E-03
       N       E                     dE             d eps       ncg     rms          rms(c)
RMM:   1    -0.994714803523E+02    0.15923E-01   -0.79668E-02    72   0.158E+00    0.117E-01
RMM:   2    -0.994717781537E+02   -0.29780E-03   -0.52107E-03    74   0.391E-01    0.772E-02
RMM:   3    -0.994718124054E+02   -0.34252E-04   -0.11560E-03    72   0.160E-01    0.299E-02
RMM:   4    -0.994718241780E+02   -0.11773E-04   -0.20664E-04    75   0.690E-02    0.176E-02
RMM:   5    -0.994718294836E+02   -0.53056E-05   -0.63845E-05    65   0.344E-02    0.520E-03
RMM:   6    -0.994718306036E+02   -0.11200E-05   -0.10803E-05    48   0.160E-02
    292 T=   240. E= -.99336678E+02 F= -.99471831E+02 E0= -.99473763E+02  EK= 0.46574E+00 SP= -.34E+00 SK= 0.66E-02
       N       E                     dE             d eps       ncg     rms          rms(c)
RMM:   1    -0.995027509510E+02   -0.30921E-01   -0.56236E-02    72   0.134E+00    0.925E-02
RMM:   2    -0.995029947721E+02   -0.24382E-03   -0.39437E-03    74   0.333E-01    0.589E-02
RMM:   3    -0.995030259212E+02   -0.31149E-04   -0.77009E-04    73   0.130E-01    0.274E-02
RMM:   4    -0.995030375777E+02   -0.11657E-04   -0.15786E-04    75   0.579E-02    0.127E-02
RMM:   5    -0.995030418757E+02   -0.42979E-05   -0.37292E-05    57   0.268E-02    0.513E-03
RMM:   6    -0.995030433261E+02   -0.14504E-05   -0.59441E-06    47   0.113E-02
    293 T=   260. E= -.99340877E+02 F= -.99503043E+02 E0= -.99504976E+02  EK= 0.50478E+00 SP= -.36E+00 SK= 0.18E-01
       N       E                     dE             d eps       ncg     rms          rms(c)
RMM:   1    -0.995197445071E+02   -0.16703E-01   -0.59740E-02    72   0.145E+00    0.762E-02
RMM:   2    -0.995199983808E+02   -0.25387E-03   -0.33205E-03    72   0.348E-01    0.498E-02
RMM:   3    -0.995200382579E+02   -0.39877E-04   -0.74561E-04    75   0.128E-01    0.284E-02
RMM:   4    -0.995200457409E+02   -0.74830E-05   -0.14282E-04    73   0.563E-02    0.111E-02
RMM:   5    -0.995200497435E+02   -0.40026E-05   -0.34647E-05    59   0.274E-02    0.763E-03
RMM:   6    -0.995200518314E+02   -0.20879E-05   -0.76175E-06    47   0.125E-02
    294 T=   278. E= -.99342364E+02 F= -.99520052E+02 E0= -.99521984E+02  EK= 0.53969E+00 SP= -.40E+00 SK= 0.34E-01
       N       E                     dE             d eps       ncg     rms          rms(c)
RMM:   1    -0.995056793339E+02    0.14370E-01   -0.77660E-02    72   0.160E+00    0.932E-02
RMM:   2    -0.995059837509E+02   -0.30442E-03   -0.44052E-03    72   0.402E-01    0.604E-02
RMM:   3    -0.995060253539E+02   -0.41603E-04   -0.95315E-04    73   0.150E-01    0.327E-02
RMM:   4    -0.995060317377E+02   -0.63838E-05   -0.16626E-04    73   0.632E-02    0.167E-02
RMM:   5    -0.995060351946E+02   -0.34569E-05   -0.48954E-05    63   0.329E-02    0.661E-03
RMM:   6    -0.995060366323E+02   -0.14378E-05   -0.10332E-05    48   0.145E-02
    295 T=   286. E= -.99338895E+02 F= -.99506037E+02 E0= -.99507969E+02  EK= 0.55528E+00 SP= -.44E+00 SK= 0.53E-01
       N       E                     dE             d eps       ncg     rms          rms(c)
RMM:   1    -0.995158341069E+02   -0.97989E-02   -0.73188E-02    72   0.154E+00    0.111E-01
RMM:   2    -0.995160745517E+02   -0.24044E-03   -0.42728E-03    73   0.383E-01    0.715E-02
RMM:   3    -0.995161193496E+02   -0.44798E-04   -0.10900E-03    73   0.156E-01    0.297E-02
RMM:   4    -0.995161251507E+02   -0.58011E-05   -0.16932E-04    72   0.664E-02    0.191E-02
RMM:   5    -0.995161305572E+02   -0.54065E-05   -0.59686E-05    64   0.354E-02    0.728E-03
RMM:   6    -0.995161312154E+02   -0.65812E-06   -0.17525E-05    51   0.192E-02
    296 T=   310. E= -.99335223E+02 F= -.99516131E+02 E0= -.99518064E+02  EK= 0.60192E+00 SP= -.50E+00 SK= 0.75E-01
       N       E                     dE             d eps       ncg     rms          rms(c)
RMM:   1    -0.995983884874E+02   -0.82258E-01   -0.47424E-02    72   0.130E+00    0.727E-02
RMM:   2    -0.995986927478E+02   -0.30426E-03   -0.35222E-03    75   0.307E-01    0.500E-02
RMM:   3    -0.995987385988E+02   -0.45851E-04   -0.69945E-04    73   0.122E-01    0.213E-02
RMM:   4    -0.995987556858E+02   -0.17087E-04   -0.16099E-04    72   0.536E-02    0.107E-02
RMM:   5    -0.995987597150E+02   -0.40292E-05   -0.31976E-05    56   0.254E-02    0.502E-03
RMM:   6    -0.995987614561E+02   -0.17411E-05   -0.55902E-06    47   0.114E-02
    297 T=   374. E= -.99337717E+02 F= -.99598761E+02 E0= -.99600694E+02  EK= 0.72555E+00 SP= -.56E+00 SK= 0.95E-01
       N       E                     dE             d eps       ncg     rms          rms(c)
RMM:   1    -0.997076756404E+02   -0.10892E+00   -0.32321E-02    72   0.108E+00    0.500E-02
RMM:   2    -0.997079619164E+02   -0.28628E-03   -0.29813E-03    75   0.260E-01    0.324E-02
RMM:   3    -0.997080167678E+02   -0.54851E-04   -0.55747E-04    75   0.101E-01    0.188E-02
RMM:   4    -0.997080289075E+02   -0.12140E-04   -0.10314E-04    70   0.456E-02    0.542E-03
RMM:   5    -0.997080327755E+02   -0.38681E-05   -0.22853E-05    52   0.216E-02    0.363E-03
RMM:   6    -0.997080350093E+02   -0.22337E-05   -0.45721E-06    47   0.103E-02
    298 T=   457. E= -.99345474E+02 F= -.99708035E+02 E0= -.99709968E+02  EK= 0.88583E+00 SP= -.63E+00 SK= 0.11E+00
       N       E                     dE             d eps       ncg     rms          rms(c)
RMM:   1    -0.997369020588E+02   -0.28869E-01   -0.64108E-02    72   0.140E+00    0.759E-02
RMM:   2    -0.997374327251E+02   -0.53067E-03   -0.57062E-03    75   0.355E-01    0.503E-02
RMM:   3    -0.997375063364E+02   -0.73611E-04   -0.93590E-04    73   0.135E-01    0.271E-02
RMM:   4    -0.997375277253E+02   -0.21389E-04   -0.24228E-04    76   0.676E-02    0.788E-03
RMM:   5    -0.997375347150E+02   -0.69897E-05   -0.66392E-05    62   0.318E-02    0.589E-03
RMM:   6    -0.997375365823E+02   -0.18673E-05   -0.64969E-06    47   0.125E-02
    299 T=   507. E= -.99349573E+02 F= -.99737537E+02 E0= -.99739469E+02  EK= 0.98236E+00 SP= -.70E+00 SK= 0.11E+00
       N       E                     dE             d eps       ncg     rms          rms(c)
RMM:   1    -0.996506768005E+02    0.86858E-01   -0.11522E-01    72   0.189E+00    0.115E-01
RMM:   2    -0.996513207886E+02   -0.64399E-03   -0.80943E-03    74   0.477E-01    0.746E-02
RMM:   3    -0.996514154889E+02   -0.94700E-04   -0.15409E-03    75   0.177E-01    0.371E-02
RMM:   4    -0.996514296504E+02   -0.14161E-04   -0.25777E-04    73   0.780E-02    0.110E-02
RMM:   5    -0.996514394101E+02   -0.97597E-05   -0.89024E-05    68   0.399E-02    0.655E-03
RMM:   6    -0.996514419140E+02   -0.25039E-05   -0.11514E-05    49   0.165E-02
    300 T=   503. E= -.99344830E+02 F= -.99651442E+02 E0= -.99653375E+02  EK= 0.97464E+00 SP= -.77E+00 SK= 0.10E+00
