PROCAR lm decomposed
# of k-points:    1         # of bands:   36         # of ions:   16

 k-point     1 :    0.00000000 0.00000000 0.00000000     weight = 1.00000000

band     1 # energy  -29.90705750 # occ.  2.00000000
 
ion      s     py     pz     px    dxy    dyz    dz2    dxz  x2-y2    tot
    1  0.000  0.000  0.000  0.000  0.000  0.000  0.000  0.000  0.000  0.000
    2  0.001  0.000  0.000  0.000  0.000  0.000  0.000  0.000  0.000  0.001
    3  0.045  0.002  0.026  0.001  0.000  0.000  0.000  0.000  0.000  0.074
    4  0.001  0.000  0.000  0.000  0.000  0.000  0.000  0.000  0.000  0.001
    5  0.000  0.000  0.000  0.000  0.000  0.000  0.000  0.000  0.000  0.000
    6  0.000  0.000  0.000  0.000  0.000  0.000  0.000  0.000  0.000  0.000
    7  0.790  0.002  0.023  0.000  0.000  0.000  0.000  0.000  0.000  0.815
    8  0.000  0.000  0.000  0.000  0.000  0.000  0.000  0.000  0.000  0.000
    9  0.000  0.000  0.000  0.000  0.000  0.000  0.000  0.000  0.000  0.000
   10  0.000  0.000  0.000  0.000  0.000  0.000  0.000  0.000  0.000  0.000
   11  0.000  0.000  0.000  0.000  0.000  0.000  0.000  0.000  0.000  0.000
   12  0.000  0.000  0.000  0.000  0.000  0.000  0.000  0.000  0.000  0.000
   13  0.000  0.000  0.000  0.000  0.000  0.000  0.000  0.000  0.000  0.000
   14  0.000  0.000  0.000  0.000  0.000  0.000  0.000  0.000  0.000  0.000
   15  0.000  0.000  0.000  0.000  0.000  0.000  0.000  0.000  0.000  0.000
   16  0.000  0.000  0.000  0.000  0.000  0.000  0.000  0.000  0.000  0.000
tot    0.837  0.005  0.049  0.001  0.000  0.000  0.000  0.000  0.000  0.892
 
band     2 # energy  -23.34554832 # occ.  2.00000000
 
ion      s     py     pz     px    dxy    dyz    dz2    dxz  x2-y2    tot
    1  0.000  0.000  0.000  0.000  0.000  0.000  0.000  0.000  0.000  0.000
    2  0.007  0.001  0.000  0.000  0.000  0.000  0.000  0.000  0.000  0.008
    3  0.013  0.003  0.002  0.000  0.000  0.000  0.000  0.000  0.000  0.019
    4  0.147  0.013  0.003  0.000  0.000  0.000  0.000  0.000  0.000  0.163
    5  0.063  0.003  0.000  0.000  0.000  0.000  0.000  0.000  0.000  0.066
    6  0.016  0.003  0.000  0.000  0.000  0.000  0.000  0.000  0.000  0.020
    7  0.004  0.000  0.000  0.000  0.000  0.000  0.000  0.000  0.000  0.004
    8  0.000  0.000  0.000  0.000  0.000  0.000  0.000  0.000  0.000  0.000
    9  0.000  0.000  0.000  0.000  0.000  0.000  0.000  0.000  0.000  0.000
   10  0.000  0.000  0.000  0.000  0.000  0.000  0.000  0.000  0.000  0.000
   11  0.032  0.000  0.005  0.001  0.000  0.000  0.000  0.000  0.000  0.038
   12  0.042  0.006  0.001  0.000  0.000  0.000  0.000  0.000  0.000  0.050
   13  0.004  0.000  0.000  0.000  0.000  0.000  0.000  0.000  0.000  0.004
   14  0.000  0.000  0.000  0.000  0.000  0.000  0.000  0.000  0.000  0.001
   15  0.351  0.004  0.007  0.000  0.000  0.000  0.000  0.000  0.000  0.362
   16  0.068  0.000  0.010  0.000  0.000  0.000  0.000  0.000  0.000  0.078
tot    0.749  0.035  0.028  0.002  0.000  0.000  0.000  0.000  0.000  0.813
 
band     3 # energy  -22.39767742 # occ.  2.00000000
 
ion      s     py     pz     px    dxy    dyz    dz2    dxz  x2-y2    tot
    1  0.001  0.000  0.000  0.000  0.000  0.000  0.000  0.000  0.000  0.002
    2  0.021  0.002  0.001  0.000  0.000  0.000  0.000  0.000  0.000  0.024
    3  0.004  0.000  0.003  0.000  0.000  0.000  0.000  0.000  0.000  0.007
    4  0.007  0.013  0.012  0.001  0.000  0.000  0.000  0.000  0.000  0.033
    5  0.078  0.020  0.020  0.000  0.000  0.000  0.000  0.000  0.000  0.118
    6  0.078  0.015  0.000  0.000  0.000  0.000  0.000  0.000  0.000  0.094
    7  0.000  0.000  0.000  0.000  0.000  0.000  0.000  0.000  0.000  0.000
    8  0.000  0.000  0.000  0.000  0.000  0.000  0.000  0.000  0.000  0.000
    9  0.000  0.000  0.000  0.000  0.000  0.000  0.000  0.000  0.000  0.000
   10  0.000  0.000  0.000  0.000  0.000  0.000  0.000  0.000  0.000  0.000
   11  0.017  0.000  0.002  0.001  0.000  0.000  0.000  0.000  0.000  0.021
   12  0.019  0.003  0.001  0.000  0.000  0.000  0.000  0.000  0.000  0.022
   13  0.002  0.000  0.000  0.000  0.000  0.000  0.000  0.000  0.000  0.002
   14  0.003  0.000  0.000  0.000  0.000  0.000  0.000  0.000  0.000  0.003
   15  0.152  0.001  0.001  0.000  0.000  0.000  0.000  0.000  0.000  0.154
   16  0.302  0.000  0.034  0.001  0.000  0.000  0.000  0.000  0.000  0.337
tot    0.684  0.056  0.074  0.003  0.000  0.000  0.000  0.000  0.000  0.817
 
band     4 # energy  -19.54360375 # occ.  2.00000000
 
ion      s     py     pz     px    dxy    dyz    dz2    dxz  x2-y2    tot
    1  0.082  0.006  0.000  0.000  0.000  0.000  0.000  0.000  0.000  0.088
    2  0.229  0.001  0.001  0.000  0.000  0.000  0.000  0.000  0.000  0.230
    3  0.119  0.001  0.019  0.000  0.000  0.000  0.000  0.000  0.000  0.139
    4  0.013  0.014  0.000  0.000  0.000  0.000  0.000  0.000  0.000  0.027
    5  0.025  0.001  0.013  0.000  0.000  0.000  0.000  0.000  0.000  0.039
    6  0.020  0.012  0.016  0.000  0.000  0.000  0.000  0.000  0.000  0.048
    7  0.017  0.000  0.009  0.000  0.000  0.000  0.000  0.000  0.000  0.026
    8  0.010  0.000  0.000  0.000  0.000  0.000  0.000  0.000  0.000  0.011
    9  0.006  0.000  0.001  0.000  0.000  0.000  0.000  0.000  0.000  0.007
   10  0.011  0.000  0.000  0.001  0.000  0.000  0.000  0.000  0.000  0.012
   11  0.001  0.000  0.000  0.000  0.000  0.000  0.000  0.000  0.000  0.001
   12  0.002  0.000  0.000  0.000  0.000  0.000  0.000  0.000  0.000  0.003
   13  0.003  0.000  0.000  0.000  0.000  0.000  0.000  0.000  0.000  0.003
   14  0.002  0.000  0.000  0.000  0.000  0.000  0.000  0.000  0.000  0.003
   15  0.006  0.001  0.000  0.000  0.000  0.000  0.000  0.000  0.000  0.007
   16  0.074  0.004  0.005  0.000  0.000  0.000  0.000  0.000  0.000  0.083
tot    0.619  0.042  0.065  0.003  0.000  0.000  0.000  0.000  0.000  0.728
 
band     5 # energy  -17.97661365 # occ.  2.00000000
 
ion      s     py     pz     px    dxy    dyz    dz2    dxz  x2-y2    tot
    1  0.071  0.001  0.001  0.000  0.000  0.000  0.000  0.000  0.000  0.073
    2  0.016  0.016  0.012  0.000  0.000  0.000  0.000  0.000  0.000  0.044
    3  0.092  0.022  0.003  0.000  0.000  0.000  0.000  0.000  0.000  0.117
    4  0.129  0.022  0.006  0.001  0.000  0.000  0.000  0.000  0.000  0.158
    5  0.040  0.000  0.013  0.000  0.000  0.000  0.000  0.000  0.000  0.054
    6  0.065  0.000  0.000  0.000  0.000  0.000  0.000  0.000  0.000  0.066
    7  0.009  0.004  0.008  0.000  0.000  0.000  0.000  0.000  0.000  0.021
    8  0.013  0.000  0.000  0.000  0.000  0.000  0.000  0.000  0.000  0.015
    9  0.006  0.000  0.000  0.000  0.000  0.000  0.000  0.000  0.000  0.006
   10  0.012  0.000  0.000  0.001  0.000  0.000  0.000  0.000  0.000  0.013
   11  0.025  0.000  0.003  0.001  0.000  0.000  0.000  0.000  0.000  0.029
   12  0.018  0.001  0.001  0.000  0.000  0.000  0.000  0.000  0.000  0.021
   13  0.004  0.000  0.000  0.000  0.000  0.000  0.000  0.000  0.000  0.004
   14  0.012  0.001  0.001  0.000  0.000  0.000  0.000  0.000  0.000  0.013
   15  0.065  0.015  0.007  0.002  0.000  0.000  0.000  0.000  0.000  0.089
   16  0.018  0.011  0.000  0.000  0.000  0.000  0.000  0.000  0.000  0.029
tot    0.595  0.094  0.057  0.007  0.000  0.000  0.000  0.000  0.000  0.752
 
band     6 # energy  -16.57241934 # occ.  2.00000000
 
ion      s     py     pz     px    dxy    dyz    dz2    dxz  x2-y2    tot
    1  0.192  0.000  0.000  0.000  0.000  0.000  0.000  0.000  0.000  0.193
    2  0.003  0.036  0.005  0.001  0.000  0.000  0.000  0.000  0.000  0.044
    3  0.020  0.001  0.001  0.000  0.000  0.000  0.000  0.000  0.000  0.022
    4  0.004  0.012  0.014  0.001  0.000  0.000  0.000  0.000  0.000  0.031
    5  0.108  0.003  0.000  0.000  0.000  0.000  0.000  0.000  0.000  0.111
    6  0.092  0.002  0.000  0.000  0.000  0.000  0.000  0.000  0.000  0.094
    7  0.002  0.002  0.003  0.000  0.000  0.000  0.000  0.000  0.000  0.006
    8  0.035  0.001  0.002  0.001  0.000  0.000  0.000  0.000  0.000  0.039
    9  0.025  0.000  0.002  0.000  0.000  0.000  0.000  0.000  0.000  0.027
   10  0.041  0.000  0.000  0.004  0.000  0.000  0.000  0.000  0.000  0.046
   11  0.012  0.000  0.001  0.000  0.000  0.000  0.000  0.000  0.000  0.014
   12  0.000  0.000  0.000  0.000  0.000  0.000  0.000  0.000  0.000  0.000
   13  0.028  0.002  0.000  0.000  0.000  0.000  0.000  0.000  0.000  0.030
   14  0.011  0.001  0.000  0.000  0.000  0.000  0.000  0.000  0.000  0.012
   15  0.007  0.000  0.015  0.002  0.000  0.000  0.000  0.000  0.000  0.024
   16  0.001  0.052  0.003  0.000  0.000  0.000  0.000  0.000  0.000  0.056
tot    0.580  0.112  0.047  0.010  0.000  0.000  0.000  0.000  0.000  0.749
 
band     7 # energy  -15.17417539 # occ.  2.00000000
 
ion      s     py     pz     px    dxy    dyz    dz2    dxz  x2-y2    tot
    1  0.008  0.000  0.003  0.000  0.000  0.000  0.000  0.000  0.000  0.011
    2  0.002  0.000  0.059  0.001  0.000  0.000  0.000  0.000  0.000  0.062
    3  0.070  0.005  0.001  0.000  0.000  0.000  0.000  0.000  0.000  0.077
    4  0.036  0.030  0.016  0.001  0.000  0.000  0.000  0.000  0.000  0.082
    5  0.005  0.010  0.061  0.002  0.000  0.000  0.000  0.000  0.000  0.077
    6  0.093  0.015  0.002  0.000  0.000  0.000  0.000  0.000  0.000  0.109
    7  0.020  0.003  0.067  0.001  0.000  0.000  0.000  0.000  0.000  0.092
    8  0.000  0.000  0.000  0.000  0.000  0.000  0.000  0.000  0.000  0.000
    9  0.004  0.000  0.000  0.000  0.000  0.000  0.000  0.000  0.000  0.004
   10  0.002  0.000  0.000  0.000  0.000  0.000  0.000  0.000  0.000  0.002
   11  0.057  0.000  0.005  0.002  0.000  0.000  0.000  0.000  0.000  0.064
   12  0.000  0.000  0.001  0.000  0.000  0.000  0.000  0.000  0.000  0.001
   13  0.004  0.000  0.001  0.000  0.000  0.000  0.000  0.000  0.000  0.005
   14  0.029  0.001  0.002  0.000  0.000  0.000  0.000  0.000  0.000  0.032
   15  0.013  0.004  0.077  0.013  0.000  0.000  0.000  0.000  0.000  0.107
   16  0.039  0.020  0.004  0.000  0.000  0.000  0.000  0.000  0.000  0.063
tot    0.383  0.088  0.297  0.021  0.000  0.000  0.000  0.000  0.000  0.789
 
band     8 # energy  -14.60224358 # occ.  2.00000000
 
ion      s     py     pz     px    dxy    dyz    dz2    dxz  x2-y2    tot
    1  0.051  0.010  0.001  0.001  0.000  0.000  0.000  0.000  0.000  0.063
    2  0.073  0.015  0.006  0.000  0.000  0.000  0.000  0.000  0.000  0.094
    3  0.000  0.079  0.020  0.001  0.000  0.000  0.000  0.000  0.000  0.100
    4  0.060  0.005  0.039  0.001  0.000  0.000  0.000  0.000  0.000  0.105
    5  0.035  0.006  0.001  0.000  0.000  0.000  0.000  0.000  0.000  0.042
    6  0.007  0.005  0.024  0.001  0.000  0.000  0.000  0.000  0.000  0.036
    7  0.000  0.020  0.000  0.000  0.000  0.000  0.000  0.000  0.000  0.021
    8  0.021  0.000  0.001  0.001  0.000  0.000  0.000  0.000  0.000  0.023
    9  0.007  0.000  0.001  0.000  0.000  0.000  0.000  0.000  0.000  0.008
   10  0.019  0.000  0.000  0.002  0.000  0.000  0.000  0.000  0.000  0.021
   11  0.000  0.001  0.000  0.000  0.000  0.000  0.000  0.000  0.000  0.001
   12  0.057  0.004  0.002  0.000  0.000  0.000  0.000  0.000  0.000  0.062
   13  0.022  0.001  0.000  0.000  0.000  0.000  0.000  0.000  0.000  0.023
   14  0.006  0.001  0.000  0.000  0.000  0.000  0.000  0.000  0.000  0.007
   15  0.005  0.108  0.001  0.000  0.000  0.000  0.000  0.000  0.000  0.114
   16  0.012  0.028  0.002  0.000  0.000  0.000  0.000  0.000  0.000  0.042
tot    0.375  0.283  0.098  0.006  0.000  0.000  0.000  0.000  0.000  0.762
 
band     9 # energy  -13.24666860 # occ.  2.00000000
 
ion      s     py     pz     px    dxy    dyz    dz2    dxz  x2-y2    tot
    1  0.000  0.000  0.001  0.000  0.000  0.000  0.000  0.000  0.000  0.002
    2  0.007  0.002  0.014  0.000  0.000  0.000  0.000  0.000  0.000  0.023
    3  0.015  0.028  0.044  0.000  0.000  0.000  0.000  0.000  0.000  0.087
    4  0.001  0.031  0.002  0.000  0.000  0.000  0.000  0.000  0.000  0.034
    5  0.010  0.006  0.001  0.000  0.000  0.000  0.000  0.000  0.000  0.018
    6  0.003  0.007  0.029  0.001  0.000  0.000  0.000  0.000  0.000  0.041
    7  0.021  0.004  0.226  0.006  0.000  0.000  0.000  0.000  0.000  0.258
    8  0.000  0.000  0.000  0.000  0.000  0.000  0.000  0.000  0.000  0.000
    9  0.001  0.000  0.000  0.000  0.000  0.000  0.000  0.000  0.000  0.001
   10  0.000  0.000  0.000  0.000  0.000  0.000  0.000  0.000  0.000  0.000
   11  0.087  0.000  0.007  0.002  0.000  0.000  0.000  0.000  0.000  0.096
   12  0.037  0.005  0.000  0.000  0.000  0.000  0.000  0.000  0.000  0.042
   13  0.000  0.000  0.000  0.000  0.000  0.000  0.000  0.000  0.000  0.000
   14  0.005  0.001  0.000  0.000  0.000  0.000  0.000  0.000  0.000  0.006
   15  0.000  0.008  0.139  0.027  0.000  0.000  0.000  0.000  0.000  0.174
   16  0.010  0.028  0.009  0.000  0.000  0.000  0.000  0.000  0.000  0.046
tot    0.199  0.118  0.473  0.038  0.000  0.000  0.000  0.000  0.000  0.827
 
band    10 # energy  -12.57226780 # occ.  2.00000000
 
ion      s     py     pz     px    dxy    dyz    dz2    dxz  x2-y2    tot
    1  0.008  0.006  0.009  0.002  0.000  0.000  0.000  0.000  0.000  0.025
    2  0.004  0.013  0.040  0.001  0.000  0.000  0.000  0.000  0.000  0.057
    3  0.000  0.000  0.061  0.001  0.000  0.000  0.000  0.000  0.000  0.062
    4  0.004  0.003  0.010  0.001  0.000  0.000  0.000  0.000  0.000  0.018
    5  0.035  0.030  0.023  0.000  0.000  0.000  0.000  0.000  0.000  0.088
    6  0.011  0.080  0.003  0.000  0.000  0.000  0.000  0.000  0.000  0.094
    7  0.008  0.039  0.103  0.002  0.000  0.000  0.000  0.000  0.000  0.152
    8  0.000  0.000  0.000  0.000  0.000  0.000  0.000  0.000  0.000  0.000
    9  0.013  0.000  0.001  0.000  0.000  0.000  0.000  0.000  0.000  0.013
   10  0.006  0.000  0.000  0.000  0.000  0.000  0.000  0.000  0.000  0.006
   11  0.012  0.000  0.001  0.000  0.000  0.000  0.000  0.000  0.000  0.013
   12  0.028  0.002  0.001  0.000  0.000  0.000  0.000  0.000  0.000  0.031
   13  0.051  0.004  0.000  0.000  0.000  0.000  0.000  0.000  0.000  0.055
   14  0.026  0.000  0.002  0.000  0.000  0.000  0.000  0.000  0.000  0.029
   15  0.000  0.032  0.021  0.004  0.000  0.000  0.000  0.000  0.000  0.058
   16  0.007  0.062  0.000  0.000  0.000  0.000  0.000  0.000  0.000  0.069
tot    0.213  0.272  0.275  0.013  0.000  0.000  0.000  0.000  0.000  0.772
 
band    11 # energy  -12.10333503 # occ.  2.00000000
 
ion      s     py     pz     px    dxy    dyz    dz2    dxz  x2-y2    tot
    1  0.005  0.019  0.005  0.000  0.000  0.000  0.000  0.000  0.000  0.030
    2  0.037  0.000  0.015  0.000  0.000  0.000  0.000  0.000  0.000  0.053
    3  0.007  0.050  0.007  0.000  0.000  0.000  0.000  0.000  0.000  0.065
    4  0.002  0.095  0.057  0.006  0.000  0.000  0.000  0.000  0.000  0.159
    5  0.007  0.000  0.018  0.000  0.000  0.000  0.000  0.000  0.000  0.025
    6  0.009  0.003  0.004  0.000  0.000  0.000  0.000  0.000  0.000  0.015
    7  0.001  0.043  0.010  0.001  0.000  0.000  0.000  0.000  0.000  0.055
    8  0.015  0.000  0.000  0.001  0.000  0.000  0.000  0.000  0.000  0.016
    9  0.000  0.000  0.000  0.000  0.000  0.000  0.000  0.000  0.000  0.000
   10  0.006  0.000  0.000  0.001  0.000  0.000  0.000  0.000  0.000  0.007
   11  0.010  0.002  0.001  0.000  0.000  0.000  0.000  0.000  0.000  0.013
   12  0.064  0.002  0.004  0.000  0.000  0.000  0.000  0.000  0.000  0.070
   13  0.002  0.000  0.000  0.000  0.000  0.000  0.000  0.000  0.000  0.003
   14  0.013  0.000  0.000  0.000  0.000  0.000  0.000  0.000  0.000  0.014
   15  0.001  0.242  0.021  0.004  0.000  0.000  0.000  0.000  0.000  0.267
   16  0.011  0.005  0.000  0.000  0.000  0.000  0.000  0.000  0.000  0.016
tot    0.190  0.462  0.142  0.014  0.000  0.000  0.000  0.000  0.000  0.808
 
band    12 # energy  -11.17108335 # occ.  2.00000000
 
ion      s     py     pz     px    dxy    dyz    dz2    dxz  x2-y2    tot
    1  0.000  0.000  0.015  0.002  0.000  0.000  0.000  0.000  0.000  0.017
    2  0.008  0.000  0.031  0.002  0.000  0.000  0.000  0.000  0.000  0.041
    3  0.000  0.032  0.001  0.002  0.000  0.000  0.000  0.000  0.000  0.035
    4  0.001  0.005  0.051  0.001  0.000  0.000  0.000  0.000  0.000  0.057
    5  0.016  0.025  0.066  0.008  0.000  0.000  0.000  0.000  0.000  0.115
    6  0.008  0.005  0.057  0.001  0.000  0.000  0.000  0.000  0.000  0.071
    7  0.000  0.057  0.017  0.003  0.000  0.000  0.000  0.000  0.000  0.077
    8  0.005  0.000  0.000  0.000  0.000  0.000  0.000  0.000  0.000  0.006
    9  0.009  0.000  0.000  0.000  0.000  0.000  0.000  0.000  0.000  0.010
   10  0.000  0.000  0.000  0.000  0.000  0.000  0.000  0.000  0.000  0.000
   11  0.063  0.000  0.004  0.001  0.000  0.000  0.000  0.000  0.000  0.068
   12  0.045  0.004  0.001  0.000  0.000  0.000  0.000  0.000  0.000  0.050
   13  0.021  0.001  0.001  0.000  0.000  0.000  0.000  0.000  0.000  0.023
   14  0.020  0.002  0.000  0.000  0.000  0.000  0.000  0.000  0.000  0.022
   15  0.001  0.013  0.077  0.037  0.000  0.000  0.000  0.000  0.000  0.128
   16  0.005  0.063  0.015  0.000  0.000  0.000  0.000  0.000  0.000  0.083
tot    0.203  0.206  0.337  0.056  0.000  0.000  0.000  0.000  0.000  0.802
 
band    13 # energy  -10.64624839 # occ.  2.00000000
 
ion      s     py     pz     px    dxy    dyz    dz2    dxz  x2-y2    tot
    1  0.000  0.001  0.001  0.028  0.000  0.000  0.000  0.000  0.000  0.029
    2  0.000  0.000  0.003  0.030  0.000  0.000  0.000  0.000  0.000  0.034
    3  0.000  0.001  0.001  0.091  0.000  0.000  0.000  0.000  0.000  0.093
    4  0.000  0.001  0.000  0.030  0.000  0.000  0.000  0.000  0.000  0.031
    5  0.001  0.000  0.003  0.008  0.000  0.000  0.000  0.000  0.000  0.012
    6  0.000  0.000  0.001  0.010  0.000  0.000  0.000  0.000  0.000  0.010
    7  0.000  0.007  0.004  0.354  0.000  0.000  0.000  0.000  0.000  0.365
    8  0.007  0.000  0.000  0.000  0.000  0.000  0.000  0.000  0.000  0.008
    9  0.003  0.000  0.000  0.000  0.000  0.000  0.000  0.000  0.000  0.003
   10  0.016  0.000  0.000  0.001  0.000  0.000  0.000  0.000  0.000  0.017
   11  0.003  0.000  0.000  0.000  0.000  0.000  0.000  0.000  0.000  0.003
   12  0.003  0.000  0.000  0.000  0.000  0.000  0.000  0.000  0.000  0.004
   13  0.000  0.000  0.000  0.000  0.000  0.000  0.000  0.000  0.000  0.000
   14  0.001  0.000  0.000  0.000  0.000  0.000  0.000  0.000  0.000  0.001
   15  0.000  0.002  0.010  0.005  0.000  0.000  0.000  0.000  0.000  0.016
   16  0.000  0.000  0.000  0.008  0.000  0.000  0.000  0.000  0.000  0.009
tot    0.034  0.012  0.024  0.565  0.000  0.000  0.000  0.000  0.000  0.635
 
band    14 # energy  -10.26975933 # occ.  2.00000000
 
ion      s     py     pz     px    dxy    dyz    dz2    dxz  x2-y2    tot
    1  0.000  0.001  0.005  0.000  0.000  0.000  0.000  0.000  0.000  0.007
    2  0.000  0.000  0.039  0.000  0.000  0.000  0.000  0.000  0.000  0.040
    3  0.024  0.013  0.035  0.000  0.000  0.000  0.000  0.000  0.000  0.073
    4  0.000  0.028  0.038  0.000  0.000  0.000  0.000  0.000  0.000  0.066
    5  0.002  0.073  0.038  0.001  0.000  0.000  0.000  0.000  0.000  0.114
    6  0.000  0.015  0.077  0.004  0.000  0.000  0.000  0.000  0.000  0.096
    7  0.001  0.000  0.123  0.004  0.000  0.000  0.000  0.000  0.000  0.127
    8  0.002  0.000  0.000  0.000  0.000  0.000  0.000  0.000  0.000  0.002
    9  0.002  0.000  0.000  0.000  0.000  0.000  0.000  0.000  0.000  0.002
   10  0.001  0.000  0.000  0.000  0.000  0.000  0.000  0.000  0.000  0.001
   11  0.005  0.000  0.000  0.000  0.000  0.000  0.000  0.000  0.000  0.006
   12  0.008  0.000  0.000  0.000  0.000  0.000  0.000  0.000  0.000  0.008
   13  0.053  0.003  0.000  0.000  0.000  0.000  0.000  0.000  0.000  0.056
   14  0.055  0.002  0.001  0.000  0.000  0.000  0.000  0.000  0.000  0.059
   15  0.000  0.004  0.002  0.004  0.000  0.000  0.000  0.000  0.000  0.011
   16  0.008  0.007  0.052  0.002  0.000  0.000  0.000  0.000  0.000  0.069
tot    0.162  0.146  0.412  0.017  0.000  0.000  0.000  0.000  0.000  0.737
 
band    15 # energy   -9.67678446 # occ.  2.00000000
 
ion      s     py     pz     px    dxy    dyz    dz2    dxz  x2-y2    tot
    1  0.000  0.001  0.009  0.197  0.000  0.000  0.000  0.000  0.000  0.207
    2  0.001  0.005  0.005  0.017  0.000  0.000  0.000  0.000  0.000  0.027
    3  0.000  0.000  0.001  0.004  0.000  0.000  0.000  0.000  0.000  0.005
    4  0.001  0.000  0.001  0.000  0.000  0.000  0.000  0.000  0.000  0.003
    5  0.000  0.010  0.000  0.001  0.000  0.000  0.000  0.000  0.000  0.011
    6  0.002  0.002  0.004  0.010  0.000  0.000  0.000  0.000  0.000  0.018
    7  0.000  0.027  0.007  0.141  0.000  0.000  0.000  0.000  0.000  0.175
    8  0.094  0.002  0.003  0.000  0.000  0.000  0.000  0.000  0.000  0.100
    9  0.000  0.000  0.000  0.001  0.000  0.000  0.000  0.000  0.000  0.001
   10  0.120  0.001  0.001  0.005  0.000  0.000  0.000  0.000  0.000  0.127
   11  0.000  0.000  0.000  0.000  0.000  0.000  0.000  0.000  0.000  0.000
   12  0.000  0.000  0.000  0.000  0.000  0.000  0.000  0.000  0.000  0.000
   13  0.009  0.000  0.000  0.000  0.000  0.000  0.000  0.000  0.000  0.009
   14  0.004  0.000  0.000  0.000  0.000  0.000  0.000  0.000  0.000  0.004
   15  0.000  0.000  0.000  0.000  0.000  0.000  0.000  0.000  0.000  0.001
   16  0.001  0.002  0.001  0.004  0.000  0.000  0.000  0.000  0.000  0.007
tot    0.233  0.051  0.032  0.382  0.000  0.000  0.000  0.000  0.000  0.698
 
band    16 # energy   -9.22398204 # occ.  2.00000000
 
ion      s     py     pz     px    dxy    dyz    dz2    dxz  x2-y2    tot
    1  0.001  0.014  0.002  0.034  0.000  0.000  0.000  0.000  0.000  0.051
    2  0.005  0.019  0.000  0.003  0.000  0.000  0.000  0.000  0.000  0.027
    3  0.000  0.003  0.001  0.000  0.000  0.000  0.000  0.000  0.000  0.004
    4  0.009  0.007  0.001  0.011  0.000  0.000  0.000  0.000  0.000  0.028
    5  0.001  0.073  0.001  0.013  0.000  0.000  0.000  0.000  0.000  0.087
    6  0.000  0.073  0.017  0.001  0.000  0.000  0.000  0.000  0.000  0.091
    7  0.000  0.173  0.016  0.001  0.000  0.000  0.000  0.000  0.000  0.190
    8  0.033  0.000  0.002  0.000  0.000  0.000  0.000  0.000  0.000  0.036
    9  0.000  0.000  0.000  0.000  0.000  0.000  0.000  0.000  0.000  0.001
   10  0.012  0.000  0.000  0.000  0.000  0.000  0.000  0.000  0.000  0.013
   11  0.000  0.000  0.000  0.000  0.000  0.000  0.000  0.000  0.000  0.001
   12  0.001  0.000  0.001  0.000  0.000  0.000  0.000  0.000  0.000  0.002
   13  0.055  0.002  0.000  0.000  0.000  0.000  0.000  0.000  0.000  0.058
   14  0.062  0.001  0.002  0.000  0.000  0.000  0.000  0.000  0.000  0.065
   15  0.001  0.004  0.000  0.009  0.000  0.000  0.000  0.000  0.000  0.014
   16  0.000  0.059  0.012  0.007  0.000  0.000  0.000  0.000  0.000  0.078
tot    0.181  0.430  0.054  0.080  0.000  0.000  0.000  0.000  0.000  0.745
 
band    17 # energy   -9.14563835 # occ.  2.00000000
 
ion      s     py     pz     px    dxy    dyz    dz2    dxz  x2-y2    tot
    1  0.000  0.138  0.038  0.003  0.000  0.000  0.000  0.000  0.000  0.179
    2  0.012  0.103  0.007  0.000  0.000  0.000  0.000  0.000  0.000  0.122
    3  0.008  0.002  0.009  0.000  0.000  0.000  0.000  0.000  0.000  0.019
    4  0.001  0.000  0.012  0.008  0.000  0.000  0.000  0.000  0.000  0.021
    5  0.001  0.007  0.022  0.002  0.000  0.000  0.000  0.000  0.000  0.031
    6  0.003  0.001  0.005  0.002  0.000  0.000  0.000  0.000  0.000  0.012
    7  0.000  0.187  0.011  0.013  0.000  0.000  0.000  0.000  0.000  0.211
    8  0.058  0.000  0.001  0.003  0.000  0.000  0.000  0.000  0.000  0.062
    9  0.007  0.001  0.000  0.000  0.000  0.000  0.000  0.000  0.000  0.008
   10  0.022  0.001  0.000  0.002  0.000  0.000  0.000  0.000  0.000  0.024
   11  0.001  0.000  0.000  0.000  0.000  0.000  0.000  0.000  0.000  0.001
   12  0.000  0.000  0.000  0.000  0.000  0.000  0.000  0.000  0.000  0.000
   13  0.007  0.000  0.000  0.000  0.000  0.000  0.000  0.000  0.000  0.008
   14  0.001  0.000  0.000  0.000  0.000  0.000  0.000  0.000  0.000  0.001
   15  0.001  0.005  0.005  0.001  0.000  0.000  0.000  0.000  0.000  0.011
   16  0.001  0.007  0.000  0.004  0.000  0.000  0.000  0.000  0.000  0.013
tot    0.123  0.454  0.109  0.038  0.000  0.000  0.000  0.000  0.000  0.724
 
band    18 # energy   -9.01422537 # occ.  2.00000000
 
ion      s     py     pz     px    dxy    dyz    dz2    dxz  x2-y2    tot
    1  0.000  0.036  0.058  0.005  0.000  0.000  0.000  0.000  0.000  0.099
    2  0.001  0.041  0.012  0.013  0.000  0.000  0.000  0.000  0.000  0.067
    3  0.000  0.000  0.000  0.001  0.000  0.000  0.000  0.000  0.000  0.001
    4  0.004  0.002  0.010  0.036  0.000  0.000  0.000  0.000  0.000  0.052
    5  0.001  0.010  0.000  0.043  0.000  0.000  0.000  0.000  0.000  0.054
    6  0.009  0.000  0.031  0.011  0.000  0.000  0.000  0.000  0.000  0.052
    7  0.000  0.002  0.008  0.103  0.000  0.000  0.000  0.000  0.000  0.113
    8  0.008  0.001  0.000  0.000  0.000  0.000  0.000  0.000  0.000  0.010
    9  0.059  0.000  0.002  0.000  0.000  0.000  0.000  0.000  0.000  0.061
   10  0.003  0.000  0.001  0.000  0.000  0.000  0.000  0.000  0.000  0.005
   11  0.000  0.000  0.000  0.000  0.000  0.000  0.000  0.000  0.000  0.001
   12  0.001  0.000  0.000  0.001  0.000  0.000  0.000  0.000  0.000  0.002
   13  0.011  0.000  0.000  0.001  0.000  0.000  0.000  0.000  0.000  0.011
   14  0.002  0.000  0.000  0.000  0.000  0.000  0.000  0.000  0.000  0.002
   15  0.000  0.003  0.007  0.034  0.000  0.000  0.000  0.000  0.000  0.044
   16  0.005  0.000  0.006  0.047  0.000  0.000  0.000  0.000  0.000  0.059
tot    0.105  0.097  0.135  0.295  0.000  0.000  0.000  0.000  0.000  0.632
 
band    19 # energy   -8.79970945 # occ.  2.00000000
 
ion      s     py     pz     px    dxy    dyz    dz2    dxz  x2-y2    tot
    1  0.000  0.003  0.152  0.016  0.000  0.000  0.000  0.000  0.000  0.172
    2  0.002  0.001  0.017  0.002  0.000  0.000  0.000  0.000  0.000  0.022
    3  0.001  0.010  0.003  0.001  0.000  0.000  0.000  0.000  0.000  0.015
    4  0.000  0.004  0.000  0.035  0.000  0.000  0.000  0.000  0.000  0.040
    5  0.000  0.005  0.014  0.023  0.000  0.000  0.000  0.000  0.000  0.042
    6  0.007  0.013  0.006  0.006  0.000  0.000  0.000  0.000  0.000  0.031
    7  0.000  0.002  0.001  0.022  0.000  0.000  0.000  0.000  0.000  0.024
    8  0.017  0.001  0.000  0.002  0.000  0.000  0.000  0.000  0.000  0.019
    9  0.148  0.000  0.004  0.000  0.000  0.000  0.000  0.000  0.000  0.152
   10  0.028  0.000  0.001  0.002  0.000  0.000  0.000  0.000  0.000  0.031
   11  0.002  0.000  0.000  0.001  0.000  0.000  0.000  0.000  0.000  0.003
   12  0.003  0.000  0.000  0.001  0.000  0.000  0.000  0.000  0.000  0.004
   13  0.001  0.000  0.000  0.000  0.000  0.000  0.000  0.000  0.000  0.002
   14  0.004  0.000  0.000  0.000  0.000  0.000  0.000  0.000  0.000  0.004
   15  0.000  0.001  0.013  0.020  0.000  0.000  0.000  0.000  0.000  0.035
   16  0.003  0.016  0.005  0.032  0.000  0.000  0.000  0.000  0.000  0.056
tot    0.217  0.058  0.216  0.161  0.000  0.000  0.000  0.000  0.000  0.652
 
band    20 # energy   -7.87512505 # occ.  2.00000000
 
ion      s     py     pz     px    dxy    dyz    dz2    dxz  x2-y2    tot
    1  0.001  0.031  0.000  0.006  0.000  0.000  0.000  0.000  0.000  0.038
    2  0.000  0.037  0.035  0.002  0.000  0.000  0.000  0.000  0.000  0.075
    3  0.001  0.057  0.011  0.000  0.000  0.000  0.000  0.000  0.000  0.069
    4  0.003  0.032  0.012  0.015  0.000  0.000  0.000  0.000  0.000  0.062
    5  0.002  0.034  0.000  0.002  0.000  0.000  0.000  0.000  0.000  0.038
    6  0.000  0.029  0.016  0.019  0.000  0.000  0.000  0.000  0.000  0.064
    7  0.000  0.159  0.015  0.001  0.000  0.000  0.000  0.000  0.000  0.174
    8  0.001  0.000  0.000  0.000  0.000  0.000  0.000  0.000  0.000  0.002
    9  0.000  0.000  0.000  0.000  0.000  0.000  0.000  0.000  0.000  0.000
   10  0.009  0.000  0.000  0.000  0.000  0.000  0.000  0.000  0.000  0.010
   11  0.000  0.000  0.000  0.001  0.000  0.000  0.000  0.000  0.000  0.001
   12  0.001  0.000  0.000  0.001  0.000  0.000  0.000  0.000  0.000  0.002
   13  0.027  0.001  0.000  0.000  0.000  0.000  0.000  0.000  0.000  0.028
   14  0.056  0.001  0.001  0.000  0.000  0.000  0.000  0.000  0.000  0.058
   15  0.000  0.005  0.016  0.034  0.000  0.000  0.000  0.000  0.000  0.056
   16  0.002  0.028  0.014  0.019  0.000  0.000  0.000  0.000  0.000  0.063
tot    0.104  0.414  0.121  0.100  0.000  0.000  0.000  0.000  0.000  0.740
 
band    21 # energy   -7.49644720 # occ.  2.00000000
 
ion      s     py     pz     px    dxy    dyz    dz2    dxz  x2-y2    tot
    1  0.000  0.010  0.000  0.004  0.000  0.000  0.000  0.000  0.000  0.015
    2  0.000  0.011  0.009  0.008  0.000  0.000  0.000  0.000  0.000  0.028
    3  0.000  0.019  0.002  0.001  0.000  0.000  0.000  0.000  0.000  0.023
    4  0.002  0.010  0.000  0.044  0.000  0.000  0.000  0.000  0.000  0.056
    5  0.002  0.009  0.000  0.017  0.000  0.000  0.000  0.000  0.000  0.029
    6  0.000  0.005  0.015  0.046  0.000  0.000  0.000  0.000  0.000  0.066
    7  0.000  0.029  0.001  0.007  0.000  0.000  0.000  0.000  0.000  0.037
    8  0.006  0.000  0.000  0.000  0.000  0.000  0.000  0.000  0.000  0.006
    9  0.001  0.000  0.000  0.000  0.000  0.000  0.000  0.000  0.000  0.002
   10  0.003  0.000  0.000  0.000  0.000  0.000  0.000  0.000  0.000  0.003
   11  0.000  0.000  0.001  0.002  0.000  0.000  0.000  0.000  0.000  0.003
   12  0.002  0.000  0.000  0.003  0.000  0.000  0.000  0.000  0.000  0.005
   13  0.005  0.000  0.000  0.000  0.000  0.000  0.000  0.000  0.000  0.005
   14  0.015  0.000  0.000  0.001  0.000  0.000  0.000  0.000  0.000  0.016
   15  0.002  0.002  0.024  0.138  0.000  0.000  0.000  0.000  0.000  0.166
   16  0.002  0.006  0.000  0.140  0.000  0.000  0.000  0.000  0.000  0.149