<?xml version="1.0" encoding="ISO-8859-1"?>
<modeling>
 <generator>
  <i name="program" type="string">vasp </i>
  <i name="version" type="string">6.4.1  </i>
  <i name="subversion" type="string">05Apr23 (build Jun 16 2023 21:25:53) gamma-only                       parallel </i>
  <i name="platform" type="string">LinuxIFC </i>
  <i name="date" type="string">2024 07 14 </i>
  <i name="time" type="string">19:43:51 </i>
 </generator>
 <incar>
  <i type="string" name="SYSTEM">Cluster</i>
  <i type="string" name="ALGO">V</i>
  <i type="int" name="NELM">   150</i>
  <i type="int" name="NELMDL">   -20</i>
  <i type="int" name="NELMIN">     6</i>
  <i type="int" name="IBRION">     0</i>
  <i name="EDIFF">      0.00001000</i>
  <i name="EDIFFG">     -0.02000000</i>
  <i type="int" name="NSW">   300</i>
  <i type="int" name="ISIF">     2</i>
  <i type="int" name="ISYM">     0</i>
  <i type="int" name="NBLOCK">     1</i>
  <i name="ENCUT">    500.00000000</i>
  <i name="POTIM">      1.00000000</i>
  <i name="TEBEG">    500.00000000</i>
  <i name="TEEND">    500.00000000</i>
  <i name="SMASS">      0.00000000</i>
  <i type="string" name="LREAL">Auto</i>
  <i type="int" name="ISMEAR">     1</i>
  <i name="SIGMA">      0.10000000</i>
  <i type="logical" name="LWAVE"> F  </i>
  <i type="logical" name="LCHARG"> F  </i>
  <i type="int" name="LORBIT">    11</i>
  <i type="int" name="MDALGO">     2</i>
 </incar>
 <primitive_cell>
  <structure name="primitive_cell" >
   <crystal>
    <varray name="basis" >
     <v>       7.75910000       0.00000000       0.00000000 </v>
     <v>       0.00000000      11.73340000       0.00000000 </v>
     <v>       0.00000000       0.00000000      11.31680000 </v>
    </varray>
    <i name="volume">   1030.28853300 </i>
    <varray name="rec_basis" >
     <v>       0.12888093       0.00000000       0.00000000 </v>
     <v>       0.00000000       0.08522679       0.00000000 </v>
     <v>       0.00000000       0.00000000       0.08836420 </v>
    </varray>
   </crystal>
   <varray name="positions" >
    <v>       0.49989944       0.71054978       0.54389096 </v>
    <v>       0.49991654       0.58270195       0.54607525 </v>
    <v>       0.49983971       0.51929038       0.44254502 </v>
    <v>       0.50025261       0.40005278       0.44148651 </v>
    <v>       0.50153219       0.34771822       0.55357164 </v>
    <v>       0.50043029       0.51912335       0.65122540 </v>
    <v>       0.50107820       0.57427454       0.33542706 </v>
    <v>       0.61391584       0.74380918       0.49751140 </v>
    <v>       0.38610184       0.74370086       0.49719148 </v>
    <v>       0.49962981       0.74454896       0.63423204 </v>
    <v>       0.53342967       0.38329536       0.26396721 </v>
    <v>       0.54149225       0.25926536       0.33992121 </v>
    <v>       0.50242704       0.25433858       0.55889225 </v>
    <v>       0.50020980       0.56400925       0.73605351 </v>
    <v>       0.49315154       0.33953460       0.33625481 </v>
    <v>       0.50166326       0.40494543       0.65557122 </v>
   </varray>
  </structure>
  <varray name="primitive_index" >
   <v type="int" >        1 </v>
   <v type="int" >        2 </v>
   <v type="int" >        3 </v>
   <v type="int" >        4 </v>
   <v type="int" >        5 </v>
   <v type="int" >        6 </v>
   <v type="int" >        7 </v>
   <v type="int" >        8 </v>
   <v type="int" >        9 </v>
   <v type="int" >       10 </v>
   <v type="int" >       11 </v>
   <v type="int" >       12 </v>
   <v type="int" >       13 </v>
   <v type="int" >       14 </v>
   <v type="int" >       15 </v>
   <v type="int" >       16 </v>
  </varray>
 </primitive_cell>
 <kpoints>
  <generation param="Gamma">
   <v type="int" name="divisions">       1        1        1 </v>
   <v name="usershift">      0.00000000       0.00000000       0.00000000 </v>
   <v name="genvec1">      1.00000000       0.00000000       0.00000000 </v>
   <v name="genvec2">      0.00000000       1.00000000       0.00000000 </v>
   <v name="genvec3">      0.00000000       0.00000000       1.00000000 </v>
   <v name="shift">      0.00000000       0.00000000       0.00000000 </v>
  </generation>
  <varray name="kpointlist" >
   <v>       0.00000000       0.00000000       0.00000000 </v>
  </varray>
  <varray name="weights" >
   <v>       1.00000000 </v>
  </varray>
 </kpoints>
 <parameters>
  <separator name="general" >
   <i type="string" name="SYSTEM">Cluster</i>
   <i type="logical" name="LCOMPAT"> F  </i>
  </separator>
  <separator name="electronic" >
   <i type="string" name="PREC">normal</i>
   <i name="ENMAX">    500.00000000</i>
   <i name="ENAUG">    644.87300000</i>
   <i name="EDIFF">      0.00001000</i>
   <i type="int" name="IALGO">    48</i>
   <i type="int" name="IWAVPR">    12</i>
   <i type="int" name="NBANDS">    36</i>
   <i type="int" name="NBANDSLOW">    -1</i>
   <i type="int" name="NBANDSHIGH">    -1</i>
   <i name="NELECT">     48.00000000</i>
   <i type="int" name="TURBO">     0</i>
   <i type="int" name="IRESTART">     0</i>
   <i type="int" name="NREBOOT">     0</i>
   <i type="int" name="NMIN">     0</i>
   <i name="EREF">      0.00000000</i>
   <separator name="electronic smearing" >
    <i type="int" name="ISMEAR">     1</i>
    <i name="SIGMA">      0.10000000</i>
    <i name="KSPACING">      0.50000000</i>
    <i type="logical" name="KGAMMA"> T  </i>
    <i type="logical" name="KBLOWUP"> T  </i>
   </separator>
   <separator name="electronic projectors" >
    <i type="logical" name="LREAL"> T  </i>
    <v name="ROPT">     -0.00050000     -0.00050000     -0.00050000     -0.00050000</v>
    <i type="int" name="LMAXPAW">  -100</i>
    <i type="int" name="LMAXMIX">     2</i>
    <i type="logical" name="NLSPLINE"> F  </i>
   </separator>
   <separator name="electronic startup" >
    <i type="int" name="ISTART">     0</i>
    <i type="int" name="ICHARG">     2</i>
    <i type="int" name="INIWAV">     1</i>
   </separator>
   <separator name="electronic spin" >
    <i type="int" name="ISPIN">     1</i>
    <i type="logical" name="LNONCOLLINEAR"> F  </i>
    <v name="MAGMOM">      1.00000000      1.00000000      1.00000000      1.00000000      1.00000000      1.00000000      1.00000000      1.00000000      1.00000000      1.00000000      1.00000000      1.00000000      1.00000000      1.00000000      1.00000000      1.00000000</v>
    <i name="NUPDOWN">     -1.00000000</i>
    <i type="logical" name="LSORBIT"> F  </i>
    <v name="SAXIS">      0.00000000      0.00000000      1.00000000</v>
    <i type="logical" name="LSPIRAL"> F  </i>
    <v name="QSPIRAL">      0.00000000      0.00000000      0.00000000</v>
    <i type="logical" name="LZEROZ"> F  </i>
   </separator>
   <separator name="electronic exchange-correlation" >
    <i type="logical" name="LASPH"> F  </i>
    <i type="logical" name="LMETAGGA"> F  </i>
   </separator>
   <separator name="electronic convergence" >
    <i type="int" name="NELM">   150</i>
    <i type="int" name="NELMDL">   -20</i>
    <i type="int" name="NELMIN">     6</i>
    <i name="ENINI">    500.00000000</i>
    <separator name="electronic convergence detail" >
     <i type="logical" name="LDIAG"> T  </i>
     <i type="logical" name="LSUBROT"> F  </i>
     <i name="WEIMIN">      0.00100000</i>
     <i name="EBREAK">      0.00000007</i>
     <i name="DEPER">      0.30000000</i>
     <i type="int" name="NRMM">     4</i>
     <i name="TIME">      0.40000000</i>
    </separator>
   </separator>
   <separator name="electronic mixer" >
    <i name="AMIX">      0.40000000</i>
    <i name="BMIX">      1.00000000</i>
    <i name="AMIN">      0.10000000</i>
    <i name="AMIX_MAG">      1.60000000</i>
    <i name="BMIX_MAG">      1.00000000</i>
    <separator name="electronic mixer details" >
     <i type="int" name="IMIX">     4</i>
     <i type="logical" name="MIXFIRST"> F  </i>
     <i type="int" name="MAXMIX">   -45</i>
     <i name="WC">    100.00000000</i>
     <i type="int" name="INIMIX">     1</i>
     <i type="int" name="MIXPRE">     1</i>
     <i type="int" name="MREMOVE">     5</i>
    </separator>
   </separator>
   <separator name="electronic dipolcorrection" >
    <i type="logical" name="LDIPOL"> F  </i>
    <i type="logical" name="LMONO"> F  </i>
    <i type="int" name="IDIPOL">     0</i>
    <i name="EPSILON">      1.00000000</i>
    <v name="DIPOL">   -100.00000000   -100.00000000   -100.00000000</v>
    <i name="EFIELD">      0.00000000</i>
   </separator>
  </separator>
  <separator name="grids" >
   <i type="int" name="NGX">    42</i>
   <i type="int" name="NGY">    64</i>
   <i type="int" name="NGZ">    64</i>
   <i type="int" name="NGXF">    84</i>
   <i type="int" name="NGYF">   128</i>
   <i type="int" name="NGZF">   128</i>
   <i type="logical" name="ADDGRID"> F  </i>
  </separator>
  <separator name="ionic" >
   <i type="int" name="NSW">   300</i>
   <i type="int" name="IBRION">     0</i>
   <i type="int" name="MDALGO">     2</i>
   <i type="int" name="ISIF">     2</i>
   <i name="PSTRESS">      0.00000000</i>
   <i name="EDIFFG">     -0.02000000</i>
   <i type="int" name="NFREE">     0</i>
   <i name="POTIM">      1.00000000</i>
   <i name="SMASS">      0.02518760</i>
   <i name="SCALEE">      1.00000000</i>
  </separator>
  <separator name="ionic md" >
   <i name="TEBEG">    500.00000000</i>
   <i name="TEEND">    500.00000000</i>
   <i type="int" name="NBLOCK">     1</i>
   <i type="int" name="KBLOCK">   300</i>
   <i type="int" name="NPACO">   256</i>
   <i name="APACO">     10.00000000</i>
  </separator>
  <separator name="symmetry" >
   <i type="int" name="ISYM">     0</i>
   <i name="SYMPREC">      0.00001000</i>
  </separator>
  <separator name="dos" >
   <i type="int" name="LORBIT">    11</i>
   <v name="RWIGS">     -1.00000000     -1.00000000     -1.00000000     -1.00000000</v>
   <i type="int" name="NEDOS">   301</i>
   <i name="EMIN">     10.00000000</i>
   <i name="EMAX">    -10.00000000</i>
   <i name="EFERMI">      0.00000000</i>
  </separator>
  <separator name="writing" >
   <i type="int" name="NWRITE">     2</i>
   <i type="logical" name="LWAVE"> F  </i>
   <i type="logical" name="LDOWNSAMPLE"> F  </i>
   <i type="logical" name="LCHARG"> F  </i>
   <i type="logical" name="LPARD"> F  </i>
   <i type="logical" name="LVTOT"> F  </i>
   <i type="logical" name="LVHAR"> F  </i>
   <i type="logical" name="LELF"> F  </i>
   <i type="logical" name="LOPTICS"> F  </i>
   <v name="STM">      0.00000000      0.00000000      0.00000000      0.00000000      0.00000000      0.00000000      0.00000000</v>
  </separator>
  <separator name="performance" >
   <i type="int" name="NPAR">     4</i>
   <i type="int" name="NSIM">     4</i>
   <i type="int" name="NBLK">    -1</i>
   <i type="logical" name="LPLANE"> T  </i>
   <i type="logical" name="LSCALAPACK"> T  </i>
   <i type="logical" name="LSCAAWARE"> F  </i>
   <i type="logical" name="LSCALU"> F  </i>
   <i type="logical" name="LASYNC"> F  </i>
   <i type="logical" name="LORBITALREAL"> F  </i>
  </separator>
  <separator name="miscellaneous" >
   <i type="int" name="IDIOT">     3</i>
   <i type="int" name="PHON_NSTRUCT">    -1</i>
   <i type="logical" name="LMUSIC"> F  </i>
   <v name="POMASS">     12.01100000     18.99800000      1.00000000     14.00100000</v>
   <v name="DARWINR">      0.00000000      0.00000000      0.00000000      0.00000000</v>
   <v name="DARWINV">      1.00000000      1.00000000      1.00000000      1.00000000</v>
   <i type="logical" name="LCORR"> T  </i>
  </separator>
  <i type="logical" name="GGA_COMPAT"> T  </i>
  <i type="logical" name="LBERRY"> F  </i>
  <i type="int" name="ICORELEVEL">     0</i>
  <i type="logical" name="LDAU"> F  </i>
  <i type="int" name="I_CONSTRAINED_M">     0</i>
  <separator name="electronic exchange-correlation" >
   <i type="string" name="GGA">--</i>
   <i type="int" name="VOSKOWN">     0</i>
   <i type="logical" name="LHFCALC"> F  </i>
   <i type="string" name="PRECFOCK"></i>
   <i type="logical" name="LSYMGRAD"> F  </i>
   <i type="logical" name="LHFONE"> F  </i>
   <i type="logical" name="LRHFCALC"> F  </i>
   <i type="logical" name="LTHOMAS"> F  </i>
   <i type="logical" name="LMODELHF"> F  </i>
   <i type="logical" name="LFOCKACE"> F  </i>
   <i name="ENCUT4O">     -1.00000000</i>
   <i type="int" name="EXXOEP">     0</i>
   <i type="int" name="FOURORBIT">     0</i>
   <i name="AEXX">      0.00000000</i>
   <i name="HFALPHA">      0.00000000</i>
   <i name="MCALPHA">      0.00000000</i>
   <i name="ALDAX">      1.00000000</i>
   <i name="AGGAX">      1.00000000</i>
   <i name="ALDAC">      1.00000000</i>
   <i name="AGGAC">      1.00000000</i>
   <i type="int" name="NKREDX">     1</i>
   <i type="int" name="NKREDY">     1</i>
   <i type="int" name="NKREDZ">     1</i>
   <i type="logical" name="SHIFTRED"> F  </i>
   <i type="logical" name="ODDONLY"> F  </i>
   <i type="logical" name="EVENONLY"> F  </i>
   <i type="int" name="LMAXFOCK">     0</i>
   <i type="int" name="NMAXFOCKAE">     0</i>
   <i type="logical" name="LFOCKAEDFT"> F  </i>
   <i name="HFSCREEN">      0.00000000</i>
   <i name="HFSCREENC">      0.00000000</i>
   <i type="int" name="NBANDSGWLOW">     0</i>
  </separator>
  <separator name="vdW DFT" >
   <i type="logical" name="LUSE_VDW"> F  </i>
   <i type="int" name="IVDW_NL">     1</i>
   <i type="logical" name="LSPIN_VDW"> F  </i>
   <i name="Zab_VDW">     -0.84910000</i>
   <i name="PARAM1">      0.12340000</i>
   <i name="PARAM2">      1.00000000</i>
   <i name="PARAM3">      0.00000000</i>
  </separator>
  <separator name="model GW" >
   <i type="int" name="MODEL_GW">     0</i>
   <i name="MODEL_EPS0">     38.63581999</i>
   <i name="MODEL_ALPHA">      1.00000000</i>
  </separator>
  <separator name="linear response parameters" >
   <i type="logical" name="LEPSILON"> F  </i>
   <i type="logical" name="LRPA"> F  </i>
   <i type="logical" name="LNABLA"> F  </i>
   <i type="logical" name="LVEL"> F  </i>
   <i name="CSHIFT">      0.10000000</i>
   <i name="OMEGAMAX">     -1.00000000</i>
   <i name="DEG_THRESHOLD">      0.00200000</i>
   <i name="RTIME">     -0.10000000</i>
   <i name="WPLASMAI">      0.00000000</i>
   <v name="DFIELD">      0.00000000      0.00000000      0.00000000</v>
   <v name="WPLASMA">      0.00000000      0.00000000      0.00000000      0.00000000      0.00000000      0.00000000      0.00000000      0.00000000      0.00000000</v>
  </separator>
  <separator name="orbital magnetization" >
   <i type="logical" name="NUCIND"> F  </i>
   <v name="MAGPOS">      0.00000000      0.00000000      0.00000000</v>
   <i type="logical" name="LNICSALL"> T  </i>
   <i type="logical" name="ORBITALMAG"> F  </i>
   <i type="logical" name="LMAGBLOCH"> F  </i>
   <i type="logical" name="LCHIMAG"> F  </i>
   <i type="logical" name="LGAUGE"> T  </i>
   <i type="int" name="MAGATOM">     0</i>
   <v name="MAGDIPOL">      0.00000000      0.00000000      0.00000000</v>
   <v name="AVECCONST">      0.00000000      0.00000000      0.00000000</v>
  </separator>
  <separator name="response functions" >
   <i type="logical" name="LALL_IN_ONE"> F  </i>
   <i type="int" name="IALL_IN_ONE">    -1</i>
   <i type="int" name="NBANDS_WAVE">    -1</i>
   <i type="logical" name="LFINITE_TEMPERATURE"> F  </i>
   <i type="logical" name="LADDER"> F  </i>
   <i type="logical" name="LRPAFORCE"> F  </i>
   <i type="logical" name="LFXC"> F  </i>
   <i type="logical" name="LHARTREE"> T  </i>
   <i type="int" name="IBSE">     0</i>
   <v type="int" name="KPOINT">    -1     0     0     0</v>
   <i type="logical" name="LTCTC"> F  </i>
   <i type="logical" name="LTCTE"> F  </i>
   <i type="logical" name="LTETE"> F  </i>
   <i type="logical" name="LTRIPLET"> F  </i>
   <i type="logical" name="LFXCEPS"> F  </i>
   <i type="logical" name="LFXHEG"> F  </i>
   <i type="int" name="NATURALO">     2</i>
   <i type="logical" name="LHOLEGF"> F  </i>
   <i type="logical" name="L2ORDER"> F  </i>
   <i type="logical" name="LDMP1"> F  </i>
   <i type="logical" name="LMP2LT"> F  </i>
   <i type="logical" name="LSMP2LT"> F  </i>
   <i type="logical" name="LGWLF"> F  </i>
   <i name="ENCUTGW">     -1.60000002</i>
   <i name="ENCUTGWSOFT">     -1.60000002</i>
   <i name="ENCUTLF">     -1.00000000</i>
   <i type="logical" name="LESF_SPLINES"> F  </i>
   <i type="int" name="LMAXMP2">    -1</i>
   <i name="SCISSOR">      0.00000000</i>
   <i type="int" name="NOMEGA">     0</i>
   <i type="int" name="NOMEGAR">     0</i>
   <i type="int" name="NBANDSGW">    -1</i>
   <i type="int" name="NBANDSO">    -1</i>
   <i type="int" name="NBANDSV">    -1</i>
   <i type="int" name="NELMGW">     1</i>
   <i type="int" name="NELMHF">     1</i>
   <i type="int" name="DIM">     3</i>
   <i type="int" name="IESPILON">     4</i>
   <i type="int" name="ANTIRES">     0</i>
   <i name="OMEGAMAX">    -30.00000000</i>
   <i name="OMEGAMIN">    -30.00000000</i>
   <i name="OMEGATL">   -200.00000000</i>
   <i type="int" name="OMEGAGRID">     0</i>
   <i name="CSHIFT">     -0.10000000</i>
   <i type="logical" name="LSELFENERGY"> F  </i>
   <i type="logical" name="LSPECTRAL"> F  </i>
   <i type="logical" name="LSPECTRALGW"> F  </i>
   <i type="logical" name="LSINGLES"> F  </i>
   <i type="logical" name="LFERMIGW"> F  </i>
   <i type="logical" name="ODDONLYGW"> F  </i>
   <i type="logical" name="EVENONLYGW"> F  </i>
   <i type="int" name="NKREDLFX">     1</i>
   <i type="int" name="NKREDLFY">     1</i>
   <i type="int" name="NKREDLFZ">     1</i>
   <i type="int" name="MAXMEM">  2800</i>
   <i type="int" name="TELESCOPE">     0</i>
   <i type="int" name="NTAUPAR">    -1</i>
   <i type="int" name="NOMEGAPAR">    -1</i>
   <i name="DAMP_NEWTON">      0.80000001</i>
   <i name="LAMBDA">      1.00000000</i>
  </separator>
  <separator name="External order field" >
   <i name="OFIELD_KAPPA">      0.00000000</i>
   <v name="OFIELD_K">      0.00000000      0.00000000      0.00000000</v>
   <i name="OFIELD_Q6_NEAR">      0.00000000</i>
   <i name="OFIELD_Q6_FAR">      0.00000000</i>
   <i name="OFIELD_A">      0.00000000</i>
  </separator>
  <separator name="optional k-points parameters" >
   <i type="int" name="KPOINTS_OPT_MODE">     1</i>
   <i type="logical" name="LKPOINTS_OPT"> F  </i>
  </separator>
  <separator name="solvation model" >
   <i type="logical" name="LSOL"> F  </i>
  </separator>
 </parameters>
 <atominfo>
  <atoms>      16 </atoms>
  <types>       4 </types>
  <array name="atoms" >
   <dimension dim="1">ion</dimension>
   <field type="string">element</field>
   <field type="int">atomtype</field>
   <set>
    <rc><c>C </c><c>   1</c></rc>
    <rc><c>C </c><c>   1</c></rc>
    <rc><c>C </c><c>   1</c></rc>
    <rc><c>C </c><c>   1</c></rc>
    <rc><c>C </c><c>   1</c></rc>
    <rc><c>C </c><c>   1</c></rc>
    <rc><c>F </c><c>   2</c></rc>
    <rc><c>H </c><c>   3</c></rc>
    <rc><c>H </c><c>   3</c></rc>
    <rc><c>H </c><c>   3</c></rc>
    <rc><c>H </c><c>   3</c></rc>
    <rc><c>H </c><c>   3</c></rc>
    <rc><c>H </c><c>   3</c></rc>
    <rc><c>H </c><c>   3</c></rc>
    <rc><c>N </c><c>   4</c></rc>
    <rc><c>N </c><c>   4</c></rc>
   </set>
  </array>
  <array name="atomtypes" >
   <dimension dim="1">type</dimension>
   <field type="int">atomspertype</field>
   <field type="string">element</field>
   <field>mass</field>
   <field>valence</field>
   <field type="string">pseudopotential</field>
   <set>
    <rc><c>   6</c><c>C </c><c>     12.01100000</c><c>      4.00000000</c><c>  PAW_PBE C 08Apr2002                   </c></rc>
    <rc><c>   1</c><c>F </c><c>     18.99800000</c><c>      7.00000000</c><c>  PAW_PBE F 08Apr2002                   </c></rc>
    <rc><c>   7</c><c>H </c><c>      1.00000000</c><c>      1.00000000</c><c>  PAW_PBE H 15Jun2001                   </c></rc>
    <rc><c>   2</c><c>N </c><c>     14.00100000</c><c>      5.00000000</c><c>  PAW_PBE N 08Apr2002                   </c></rc>
   </set>
  </array>
 </atominfo>
 <structure name="initialpos" >
  <crystal>
   <varray name="basis" >
    <v>       7.75910000       0.00000000       0.00000000 </v>
    <v>       0.00000000      11.73340000       0.00000000 </v>
    <v>       0.00000000       0.00000000      11.31680000 </v>
   </varray>
   <i name="volume">   1030.28853300 </i>
   <varray name="rec_basis" >
    <v>       0.12888093       0.00000000       0.00000000 </v>
    <v>       0.00000000       0.08522679       0.00000000 </v>
    <v>       0.00000000       0.00000000       0.08836420 </v>
   </varray>
  </crystal>
  <varray name="positions" >
   <v>       0.49989944       0.71054978       0.54389096 </v>
   <v>       0.49991654       0.58270195       0.54607525 </v>
   <v>       0.49983971       0.51929038       0.44254502 </v>
   <v>       0.50025261       0.40005278       0.44148651 </v>
   <v>       0.50153219       0.34771822       0.55357164 </v>
   <v>       0.50043029       0.51912335       0.65122540 </v>
   <v>       0.50107820       0.57427454       0.33542706 </v>
   <v>       0.61391584       0.74380918       0.49751140 </v>
   <v>       0.38610184       0.74370086       0.49719148 </v>
   <v>       0.49962981       0.74454896       0.63423204 </v>
   <v>       0.53342967       0.38329536       0.26396721 </v>
   <v>       0.54149225       0.25926536       0.33992121 </v>
   <v>       0.50242704       0.25433858       0.55889225 </v>
   <v>       0.50020980       0.56400925       0.73605351 </v>
   <v>       0.49315154       0.33953460       0.33625481 </v>
   <v>       0.50166326       0.40494543       0.65557122 </v>
  </varray>
  <varray name="velocities" >
   <v>       0.00129259      -0.00029596      -0.00041119 </v>
   <v>      -0.00012590       0.00007214      -0.00042572 </v>
   <v>      -0.00021546      -0.00006712       0.00014339 </v>
   <v>       0.00011117       0.00050433      -0.00051853 </v>
   <v>      -0.00053153      -0.00114012      -0.00032727 </v>
   <v>       0.00012074       0.00016130       0.00032369 </v>
   <v>       0.00015491       0.00059920       0.00055806 </v>
   <v>       0.00043349       0.00047233       0.00001573 </v>
   <v>      -0.00149213      -0.00120061      -0.00086990 </v>
   <v>      -0.00183329      -0.00327155      -0.00098312 </v>
   <v>      -0.00488868       0.00119010      -0.00104967 </v>
   <v>       0.00282839      -0.00270159      -0.00072351 </v>
   <v>       0.00504657      -0.00295139       0.00268879 </v>
   <v>       0.00219379      -0.00165108       0.00048981 </v>
   <v>      -0.00038069       0.00062372      -0.00010253 </v>
   <v>      -0.00055193      -0.00005777       0.00041899 </v>
  </varray>
 </structure>
 <calculation>
  <scstep>
   <time name="diag">    0.07    0.15</time>
   <time name="diis">    0.09    0.10</time>
   <time name="orth">    0.00    0.00</time>
   <time name="total">    0.29    0.42</time>
   <energy>
    <i name="alphaZ">      9.71200593 </i>
    <i name="ewald">   1879.09198057 </i>
    <i name="hartreedc">  -3514.41643948 </i>
    <i name="XCdc">    171.26894112 </i>
    <i name="pawpsdc">   1615.14374411 </i>
    <i name="pawaedc">  -1626.10587105 </i>
    <i name="eentropy">      0.00579794 </i>
    <i name="bandstr">     94.13913510 </i>
    <i name="atom">   2158.97731088 </i>
    <i name="e_fr_energy">    787.81660513 </i>
    <i name="e_wo_entrp">    787.81080719 </i>
    <i name="e_0_energy">    787.81467248 </i>
   </energy>
  </scstep>
  <scstep>
   <time name="diag">    0.03    0.04</time>
   <time name="diis">    0.09    0.09</time>
   <time name="orth">    0.00    0.00</time>
   <time name="total">    0.13    0.14</time>
   <energy>
    <i name="e_fr_energy">    406.10629161 </i>
    <i name="e_wo_entrp">    406.14677660 </i>
    <i name="e_0_energy">    406.11978660 </i>
   </energy>
  </scstep>
  <scstep>
   <time name="diag">    0.03    0.03</time>
   <time name="diis">    0.09    0.09</time>
   <time name="orth">    0.00    0.00</time>
   <time name="total">    0.12    0.12</time>
   <energy>
    <i name="e_fr_energy">    243.90616249 </i>
    <i name="e_wo_entrp">    243.89349560 </i>
    <i name="e_0_energy">    243.90194020 </i>
   </energy>
  </scstep>
  <scstep>
   <time name="diag">    0.03    0.03</time>
   <time name="diis">    0.09    0.09</time>
   <time name="orth">    0.00    0.00</time>
   <time name="total">    0.12    0.12</time>
   <energy>
    <i name="e_fr_energy">     74.07467903 </i>
    <i name="e_wo_entrp">     74.06888112 </i>
    <i name="e_0_energy">     74.07274639 </i>
   </energy>
  </scstep>
  <scstep>
   <time name="diag">    0.03    0.04</time>
   <time name="diis">    0.09    0.09</time>
   <time name="orth">    0.00    0.00</time>
   <time name="total">    0.12    0.13</time>
   <energy>
    <i name="e_fr_energy">     -7.87459991 </i>
    <i name="e_wo_entrp">     -7.82054745 </i>
    <i name="e_0_energy">     -7.85658242 </i>
   </energy>
  </scstep>
  <scstep>
   <time name="diag">    0.03    0.03</time>
   <time name="diis">    0.09    0.09</time>
   <time name="orth">    0.00    0.00</time>
   <time name="total">    0.12    0.12</time>
   <energy>
    <i name="e_fr_energy">    -69.27976025 </i>
    <i name="e_wo_entrp">    -69.28555816 </i>
    <i name="e_0_energy">    -69.28169288 </i>
   </energy>
  </scstep>
  <scstep>
   <time name="diag">    0.03    0.03</time>
   <time name="diis">    0.09    0.09</time>
   <time name="orth">    0.00    0.00</time>
   <time name="total">    0.12    0.13</time>
   <energy>
    <i name="e_fr_energy">    -94.20971563 </i>
    <i name="e_wo_entrp">    -94.21551353 </i>
    <i name="e_0_energy">    -94.21164826 </i>
   </energy>
  </scstep>
  <scstep>
   <time name="diag">    0.03    0.03</time>
   <time name="diis">    0.09    0.09</time>
   <time name="orth">    0.00    0.00</time>
   <time name="total">    0.12    0.12</time>
   <energy>
    <i name="e_fr_energy">   -104.46108399 </i>
    <i name="e_wo_entrp">   -104.46688190 </i>
    <i name="e_0_energy">   -104.46301663 </i>
   </energy>
  </scstep>
  <scstep>
   <time name="diag">    0.03    0.03</time>
   <time name="diis">    0.09    0.09</time>
   <time name="orth">    0.00    0.00</time>
   <time name="total">    0.12    0.12</time>
   <energy>
    <i name="e_fr_energy">   -107.99664730 </i>
    <i name="e_wo_entrp">   -108.00244520 </i>
    <i name="e_0_energy">   -107.99857993 </i>
   </energy>
  </scstep>
  <scstep>
   <time name="diag">    0.03    0.03</time>
   <time name="diis">    0.09    0.09</time>
   <time name="orth">    0.00    0.00</time>
   <time name="total">    0.12    0.12</time>
   <energy>
    <i name="e_fr_energy">   -109.16777822 </i>
    <i name="e_wo_entrp">   -109.17357612 </i>
    <i name="e_0_energy">   -109.16971085 </i>
   </energy>
  </scstep>
  <scstep>
   <time name="diag">    0.03    0.03</time>
   <time name="diis">    0.09    0.09</time>
   <time name="orth">    0.00    0.00</time>
   <time name="total">    0.12    0.12</time>
   <energy>
    <i name="e_fr_energy">   -109.55387542 </i>
    <i name="e_wo_entrp">   -109.55967333 </i>
    <i name="e_0_energy">   -109.55580806 </i>
   </energy>
  </scstep>
  <scstep>
   <time name="diag">    0.03    0.03</time>
   <time name="diis">    0.09    0.09</time>
   <time name="orth">    0.00    0.00</time>
   <time name="total">    0.12    0.12</time>
   <energy>
    <i name="e_fr_energy">   -109.72873415 </i>
    <i name="e_wo_entrp">   -109.73453206 </i>
    <i name="e_0_energy">   -109.73066679 </i>
   </energy>
  </scstep>
  <scstep>
   <time name="diag">    0.03    0.03</time>
   <time name="diis">    0.09    0.09</time>
   <time name="orth">    0.00    0.00</time>
   <time name="total">    0.12    0.13</time>
   <energy>
    <i name="e_fr_energy">   -109.78866796 </i>
    <i name="e_wo_entrp">   -109.79446587 </i>
    <i name="e_0_energy">   -109.79060060 </i>
   </energy>
  </scstep>
  <scstep>
   <time name="diag">    0.03    0.03</time>
   <time name="diis">    0.09    0.09</time>
   <time name="orth">    0.00    0.00</time>
   <time name="total">    0.12    0.12</time>
   <energy>
    <i name="e_fr_energy">   -109.81377392 </i>
    <i name="e_wo_entrp">   -109.81957183 </i>
    <i name="e_0_energy">   -109.81570656 </i>
   </energy>
  </scstep>
  <scstep>
   <time name="diag">    0.03    0.03</time>
   <time name="diis">    0.16    0.17</time>
   <time name="orth">    0.00    0.00</time>
   <time name="total">    0.20    0.20</time>
   <energy>
    <i name="e_fr_energy">   -109.82743683 </i>
    <i name="e_wo_entrp">   -109.83323473 </i>
    <i name="e_0_energy">   -109.82936946 </i>
   </energy>
  </scstep>
  <scstep>
   <time name="diag">    0.03    0.03</time>
   <time name="diis">    0.17    0.17</time>
   <time name="orth">    0.00    0.00</time>
   <time name="total">    0.20    0.20</time>
   <energy>
    <i name="e_fr_energy">   -109.83173474 </i>
    <i name="e_wo_entrp">   -109.83753264 </i>
    <i name="e_0_energy">   -109.83366737 </i>
   </energy>
  </scstep>
  <scstep>
   <time name="diag">    0.03    0.03</time>
   <time name="diis">    0.17    0.17</time>
   <time name="orth">    0.00    0.00</time>
   <time name="total">    0.20    0.20</time>
   <energy>
    <i name="e_fr_energy">   -109.83198071 </i>
    <i name="e_wo_entrp">   -109.83777861 </i>
    <i name="e_0_energy">   -109.83391334 </i>
   </energy>
  </scstep>
  <scstep>
   <time name="diag">    0.03    0.03</time>
   <time name="diis">    0.13    0.13</time>
   <time name="orth">    0.00    0.00</time>
   <time name="total">    0.17    0.17</time>
   <energy>
    <i name="e_fr_energy">   -109.83199790 </i>
    <i name="e_wo_entrp">   -109.83779581 </i>
    <i name="e_0_energy">   -109.83393054 </i>
   </energy>
  </scstep>
  <scstep>
   <time name="diag">    0.03    0.03</time>
   <time name="diis">    0.11    0.11</time>
   <time name="orth">    0.00    0.00</time>
   <time name="total">    0.14    0.14</time>
   <energy>
    <i name="e_fr_energy">   -109.83199902 </i>
    <i name="e_wo_entrp">   -109.83779692 </i>
    <i name="e_0_energy">   -109.83393165 </i>
   </energy>
  </scstep>
  <scstep>
   <time name="diag">    0.03    0.03</time>
   <time name="diis">    0.10    0.10</time>
   <time name="orth">    0.00    0.00</time>
   <time name="total">    0.16    0.17</time>
   <energy>
    <i name="e_fr_energy">   -109.83199950 </i>
    <i name="e_wo_entrp">   -109.83779740 </i>
    <i name="e_0_energy">   -109.83393213 </i>
   </energy>
  </scstep>
  <scstep>
   <time name="diag">    0.03    0.03</time>
   <time name="diis">    0.25    0.26</time>
   <time name="orth">    0.00    0.00</time>
   <time name="total">    0.44    0.44</time>
   <energy>
    <i name="e_fr_energy">   -102.31753379 </i>
    <i name="e_wo_entrp">   -102.32333169 </i>
    <i name="e_0_energy">   -102.31946642 </i>
   </energy>
  </scstep>
  <scstep>
   <time name="diag">    0.03    0.03</time>
   <time name="diis">    0.25    0.25</time>
   <time name="orth">    0.00    0.00</time>
   <time name="total">    0.42    0.43</time>
   <energy>
    <i name="e_fr_energy">   -100.64282004 </i>
    <i name="e_wo_entrp">   -100.64861795 </i>
    <i name="e_0_energy">   -100.64475268 </i>
   </energy>
  </scstep>
  <scstep>
   <time name="diag">    0.03    0.03</time>
   <time name="diis">    0.25    0.26</time>
   <time name="orth">    0.00    0.00</time>
   <time name="total">    0.43    0.43</time>
   <energy>
    <i name="e_fr_energy">   -100.33371742 </i>
    <i name="e_wo_entrp">   -100.33951533 </i>
    <i name="e_0_energy">   -100.33565006 </i>
   </energy>
  </scstep>
  <scstep>
   <time name="diag">    0.03    0.03</time>
   <time name="diis">    0.21    0.21</time>
   <time name="orth">    0.00    0.00</time>
   <time name="total">    0.37    0.38</time>
   <energy>
    <i name="e_fr_energy">   -100.29813587 </i>
    <i name="e_wo_entrp">   -100.30393378 </i>
    <i name="e_0_energy">   -100.30006851 </i>
   </energy>
  </scstep>
  <scstep>
   <time name="diag">    0.03    0.03</time>
   <time name="diis">    0.17    0.17</time>
   <time name="orth">    0.00    0.00</time>
   <time name="total">    0.34    0.34</time>
   <energy>
    <i name="e_fr_energy">   -100.29128056 </i>
    <i name="e_wo_entrp">   -100.29707847 </i>
    <i name="e_0_energy">   -100.29321320 </i>
   </energy>
  </scstep>
  <scstep>
   <time name="diag">    0.03    0.03</time>
   <time name="diis">    0.19    0.19</time>
   <time name="orth">    0.00    0.00</time>
   <time name="total">    0.36    0.36</time>
   <energy>
    <i name="e_fr_energy">   -100.29354171 </i>
    <i name="e_wo_entrp">   -100.29933962 </i>
    <i name="e_0_energy">   -100.29547435 </i>
   </energy>
  </scstep>
  <scstep>
   <time name="diag">    0.03    0.03</time>
   <time name="diis">    0.16    0.16</time>
   <time name="orth">    0.00    0.00</time>
   <time name="total">    0.33    0.33</time>
   <energy>
    <i name="e_fr_energy">   -100.30036077 </i>
    <i name="e_wo_entrp">   -100.30615867 </i>
    <i name="e_0_energy">   -100.30229340 </i>
   </energy>
  </scstep>
  <scstep>
   <time name="diag">    0.03    0.03</time>
   <time name="diis">    0.15    0.15</time>
   <time name="orth">    0.00    0.00</time>
   <time name="total">    0.32    0.32</time>
   <energy>
    <i name="e_fr_energy">   -100.30562250 </i>
    <i name="e_wo_entrp">   -100.31142041 </i>
    <i name="e_0_energy">   -100.30755514 </i>
   </energy>
  </scstep>
  <scstep>
   <time name="diag">    0.04    0.04</time>
   <time name="diis">    0.16    0.16</time>
   <time name="orth">    0.00    0.00</time>
   <time name="total">    0.32    0.33</time>
   <energy>
    <i name="e_fr_energy">   -100.31044017 </i>
    <i name="e_wo_entrp">   -100.31623808 </i>
    <i name="e_0_energy">   -100.31237281 </i>
   </energy>
  </scstep>
  <scstep>
   <time name="diag">    0.03    0.03</time>
   <time name="diis">    0.15    0.16</time>
   <time name="orth">    0.00    0.00</time>
   <time name="total">    0.32    0.32</time>
   <energy>
    <i name="e_fr_energy">   -100.31313874 </i>
    <i name="e_wo_entrp">   -100.31893664 </i>
    <i name="e_0_energy">   -100.31507137 </i>
   </energy>
  </scstep>
  <scstep>
   <time name="diag">    0.03    0.03</time>
   <time name="diis">    0.14    0.14</time>
   <time name="orth">    0.00    0.00</time>
   <time name="total">    0.31    0.31</time>
   <energy>
    <i name="e_fr_energy">   -100.31372225 </i>
    <i name="e_wo_entrp">   -100.31952015 </i>
    <i name="e_0_energy">   -100.31565488 </i>
   </energy>
  </scstep>
  <scstep>
   <time name="diag">    0.03    0.03</time>
   <time name="diis">    0.13    0.13</time>
   <time name="orth">    0.00    0.00</time>
   <time name="total">    0.29    0.30</time>
   <energy>
    <i name="e_fr_energy">   -100.31399007 </i>
    <i name="e_wo_entrp">   -100.31978797 </i>
    <i name="e_0_energy">   -100.31592270 </i>
   </energy>
  </scstep>
  <scstep>
   <time name="diag">    0.03    0.03</time>
   <time name="diis">    0.12    0.12</time>
   <time name="orth">    0.00    0.00</time>
   <time name="total">    0.28    0.28</time>
   <energy>
    <i name="e_fr_energy">   -100.31407856 </i>
    <i name="e_wo_entrp">   -100.31987646 </i>
    <i name="e_0_energy">   -100.31601119 </i>
   </energy>
  </scstep>
  <scstep>
   <time name="diag">    0.03    0.03</time>
   <time name="diis">    0.11    0.11</time>
   <time name="orth">    0.00    0.00</time>
   <time name="total">    0.27    0.27</time>
   <energy>
    <i name="e_fr_energy">   -100.31412970 </i>
    <i name="e_wo_entrp">   -100.31992760 </i>
    <i name="e_0_energy">   -100.31606233 </i>
   </energy>
  </scstep>
  <scstep>
   <time name="diag">    0.03    0.03</time>
   <time name="diis">    0.10    0.10</time>
   <time name="orth">    0.00    0.00</time>
   <time name="total">    0.27    0.27</time>
   <energy>
    <i name="e_fr_energy">   -100.31414300 </i>
    <i name="e_wo_entrp">   -100.31994090 </i>
    <i name="e_0_energy">   -100.31607563 </i>
   </energy>
  </scstep>
  <scstep>
   <time name="diag">    0.03    0.03</time>
   <time name="diis">    0.09    0.09</time>
   <time name="orth">    0.00    0.00</time>
   <time name="total">    0.23    0.23</time>
   <energy>
    <i name="alphaZ">      9.71200593 </i>
    <i name="ewald">   1879.09198057 </i>
    <i name="hartreedc">  -3704.75631724 </i>
    <i name="XCdc">    180.23775764 </i>
    <i name="pawpsdc">   4275.61813554 </i>
    <i name="pawaedc">  -4287.99723804 </i>
    <i name="eentropy">      0.00579791 </i>
    <i name="bandstr">   -611.20358147 </i>
    <i name="atom">   2158.97731088 </i>
    <i name="e_fr_energy">   -100.31414828 </i>
    <i name="e_wo_entrp">   -100.31994619 </i>
    <i name="e_0_energy">   -100.31608092 </i>
   </energy>
  </scstep>
  <structure>
   <crystal>
    <varray name="basis" >
     <v>       7.75910000       0.00000000       0.00000000 </v>
     <v>       0.00000000      11.73340000       0.00000000 </v>
     <v>       0.00000000       0.00000000      11.31680000 </v>
    </varray>
    <i name="volume">   1030.28853300 </i>
    <varray name="rec_basis" >
     <v>       0.12888093       0.00000000       0.00000000 </v>
     <v>       0.00000000       0.08522679       0.00000000 </v>
     <v>       0.00000000       0.00000000       0.08836420 </v>
    </varray>
   </crystal>
   <varray name="positions" >
    <v>       0.49989944       0.71054978       0.54389096 </v>
    <v>       0.49991654       0.58270195       0.54607525 </v>
    <v>       0.49983971       0.51929038       0.44254502 </v>
    <v>       0.50025261       0.40005278       0.44148651 </v>
    <v>       0.50153219       0.34771822       0.55357164 </v>
    <v>       0.50043029       0.51912335       0.65122540 </v>
    <v>       0.50107820       0.57427454       0.33542706 </v>
    <v>       0.61391584       0.74380918       0.49751140 </v>
    <v>       0.38610184       0.74370086       0.49719148 </v>
    <v>       0.49962981       0.74454896       0.63423204 </v>
    <v>       0.53342967       0.38329536       0.26396721 </v>
    <v>       0.54149225       0.25926536       0.33992121 </v>
    <v>       0.50242704       0.25433858       0.55889225 </v>
    <v>       0.50020980       0.56400925       0.73605351 </v>
    <v>       0.49315154       0.33953460       0.33625481 </v>
    <v>       0.50166326       0.40494543       0.65557122 </v>
   </varray>
  </structure>
  <varray name="forces" >
   <v>      -0.00132515       0.00219714       0.01669544 </v>
   <v>      -0.00645966       0.01584333       0.02450976 </v>
   <v>       0.00142745      -0.01456645       0.03046163 </v>
   <v>       0.02191374      -0.00993336      -0.01090652 </v>
   <v>       0.00036373      -0.02306978       0.02835722 </v>
   <v>      -0.00573171      -0.02726145       0.02052882 </v>
   <v>       0.00219741       0.00490064       0.02600477 </v>
   <v>      -0.01141348       0.01018713       0.01384911 </v>
   <v>       0.01157691       0.01353007       0.01370340 </v>
   <v>       0.00055203       0.01340386      -0.01121851 </v>
   <v>      -0.02864319      -0.02456432      -0.03578729 </v>
   <v>      -0.02667310      -0.01287627      -0.01801594 </v>
   <v>       0.00170568       0.05054408       0.00642064 </v>
   <v>       0.00115896      -0.01300403      -0.01971905 </v>
   <v>       0.05487821      -0.00462703       0.01951100 </v>
   <v>      -0.00623459       0.04274597      -0.02378058 </v>
  </varray>
  <varray name="stress" >
   <v>      -0.29131909      -0.03940998      -0.05371427 </v>
   <v>      -0.03940997      -0.30180262       0.25955654 </v>
   <v>      -0.05371426       0.25955656      -0.29695802 </v>
  </varray>
  <energy>
   <i name="e_fr_energy">   -100.31414828 </i>
   <i name="e_wo_entrp">   -100.31994619 </i>
   <i name="e_0_energy">   -100.31608092 </i>
   <i name="kinetic">      0.96882721 </i>
   <i name="lattice kinetic">      0.00000000 </i>
   <i name="nosepot">      0.00000000 </i>
   <i name="nosekinetic">      0.00000000 </i>
   <i name="total">    -99.34532108 </i>
  </energy>
  <time name="totalsc">    8.88    9.22</time>
 </calculation>
 <calculation>
  <scstep>
   <time name="diag">    0.03    0.03</time>
   <time name="diis">    0.15    0.15</time>
   <time name="orth">    0.00    0.00</time>
   <time name="total">    0.32    0.32</time>
   <energy>
    <i name="alphaZ">      9.71200593 </i>
    <i name="ewald">   1870.42334021 </i>
    <i name="hartreedc">  -3698.11754161 </i>
    <i name="XCdc">    180.10934622 </i>
    <i name="pawpsdc">   4275.59675697 </i>
    <i name="pawaedc">  -4287.97587638 </i>
    <i name="eentropy">      0.00579791 </i>
    <i name="bandstr">   -608.94030969 </i>
    <i name="atom">   2158.97731088 </i>
    <i name="e_fr_energy">   -100.20916956 </i>
    <i name="e_wo_entrp">   -100.21496746 </i>
    <i name="e_0_energy">   -100.21110219 </i>
   </energy>
  </scstep>
  <scstep>
   <time name="diag">    0.03    0.03</time>
   <time name="diis">    0.14    0.15</time>
   <time name="orth">    0.00    0.00</time>
   <time name="total">    0.31    0.31</time>
   <energy>
    <i name="e_fr_energy">   -100.23078011 </i>
    <i name="e_wo_entrp">   -100.23657802 </i>
    <i name="e_0_energy">   -100.23271275 </i>
   </energy>
  </scstep>
  <scstep>
   <time name="diag">    0.03    0.03</time>
   <time name="diis">    0.15    0.15</time>
   <time name="orth">    0.00    0.00</time>
   <time name="total">    0.31    0.31</time>
   <energy>
    <i name="e_fr_energy">   -100.23341812 </i>
    <i name="e_wo_entrp">   -100.23921603 </i>
    <i name="e_0_energy">   -100.23535076 </i>
   </energy>
  </scstep>
  <scstep>
   <time name="diag">    0.03    0.03</time>
   <time name="diis">    0.15    0.15</time>
   <time name="orth">    0.00    0.00</time>
   <time name="total">    0.31    0.32</time>
   <energy>
    <i name="e_fr_energy">   -100.23375374 </i>
    <i name="e_wo_entrp">   -100.23955164 </i>
    <i name="e_0_energy">   -100.23568637 </i>
   </energy>
  </scstep>
  <scstep>
   <time name="diag">    0.03    0.03</time>
   <time name="diis">    0.16    0.16</time>
   <time name="orth">    0.00    0.00</time>
   <time name="total">    0.32    0.32</time>
   <energy>
    <i name="e_fr_energy">   -100.23395035 </i>
    <i name="e_wo_entrp">   -100.23974826 </i>
    <i name="e_0_energy">   -100.23588299 </i>
   </energy>
  </scstep>
  <scstep>
   <time name="diag">    0.03    0.03</time>
   <time name="diis">    0.15    0.16</time>
   <time name="orth">    0.00    0.00</time>
   <time name="total">    0.32    0.32</time>
   <energy>
    <i name="e_fr_energy">   -100.23401398 </i>
    <i name="e_wo_entrp">   -100.23981188 </i>
    <i name="e_0_energy">   -100.23594661 </i>
   </energy>
  </scstep>
  <scstep>
   <time name="diag">    0.03    0.03</time>
   <time name="diis">    0.14    0.14</time>
   <time name="orth">    0.00    0.00</time>
   <time name="total">    0.30    0.31</time>
   <energy>
    <i name="e_fr_energy">   -100.23404713 </i>
    <i name="e_wo_entrp">   -100.23984503 </i>
    <i name="e_0_energy">   -100.23597976 </i>
   </energy>
  </scstep>
  <scstep>
   <time name="diag">    0.04    0.04</time>
   <time name="diis">    0.12    0.12</time>
   <time name="orth">    0.00    0.00</time>
   <time name="total">    0.28    0.29</time>
   <energy>
    <i name="e_fr_energy">   -100.23407504 </i>
    <i name="e_wo_entrp">   -100.23987294 </i>
    <i name="e_0_energy">   -100.23600767 </i>
   </energy>
  </scstep>
  <scstep>
   <time name="diag">    0.03    0.03</time>
   <time name="diis">    0.11    0.11</time>
   <time name="orth">    0.00    0.00</time>
   <time name="total">    0.27    0.27</time>
   <energy>
    <i name="e_fr_energy">   -100.23409043 </i>
    <i name="e_wo_entrp">   -100.23988834 </i>
    <i name="e_0_energy">   -100.23602307 </i>
   </energy>
  </scstep>
  <scstep>
   <time name="diag">    0.03    0.03</time>
   <time name="diis">    0.10    0.10</time>
   <time name="orth">    0.00    0.00</time>
   <time name="total">    0.27    0.27</time>
   <energy>
    <i name="e_fr_energy">   -100.23411182 </i>
    <i name="e_wo_entrp">   -100.23990972 </i>
    <i name="e_0_energy">   -100.23604445 </i>
   </energy>
  </scstep>
  <scstep>
   <time name="diag">    0.03    0.03</time>
   <time name="diis">    0.10    0.10</time>
   <time name="orth">    0.00    0.00</time>
   <time name="total">    0.24    0.24</time>
   <energy>
    <i name="alphaZ">      9.71200593 </i>
    <i name="ewald">   1870.42334021 </i>
    <i name="hartreedc">  -3696.62921783 </i>
    <i name="XCdc">    180.03694378 </i>
    <i name="pawpsdc">   4250.33782883 </i>
    <i name="pawaedc">  -4262.69685005 </i>
    <i name="eentropy">      0.00579791 </i>
    <i name="bandstr">   -610.40127558 </i>
    <i name="atom">   2158.97731088 </i>
    <i name="e_fr_energy">   -100.23411593 </i>
    <i name="e_wo_entrp">   -100.23991383 </i>
    <i name="e_0_energy">   -100.23604856 </i>
   </energy>
  </scstep>
  <structure>
   <crystal>
    <varray name="basis" >
     <v>       7.75910000       0.00000000       0.00000000 </v>
     <v>       0.00000000      11.73340000       0.00000000 </v>
     <v>       0.00000000       0.00000000      11.31680000 </v>
    </varray>
    <i name="volume">   1030.28853300 </i>
    <varray name="rec_basis" >
     <v>       0.12888093       0.00000000       0.00000000 </v>
     <v>       0.00000000       0.08522679       0.00000000 </v>
     <v>       0.00000000       0.00000000       0.08836420 </v>
    </varray>
   </crystal>
   <varray name="positions" >
    <v>       0.49947527       0.71144627       0.54447884 </v>
    <v>       0.49934508       0.58234481       0.54606092 </v>
    <v>       0.49996606       0.51936497       0.44248055 </v>
    <v>       0.49882083       0.40023586       0.44099802 </v>
    <v>       0.50175043       0.34794776       0.55378828 </v>
    <v>       0.50183059       0.51826454       0.65094744 </v>
    <v>       0.50135527       0.57422273       0.33467812 </v>
    <v>       0.61608531       0.74446798       0.49496491 </v>
    <v>       0.38952792       0.74229350       0.49710820 </v>
    <v>       0.49726908       0.74482334       0.63424360 </v>
    <v>       0.53627271       0.38525112       0.26476354 </v>
    <v>       0.53869751       0.25713170       0.34201376 </v>
    <v>       0.50626809       0.25357138       0.55791540 </v>
    <v>       0.49490921       0.56367712       0.73778357 </v>
    <v>       0.49322514       0.33927847       0.33645495 </v>
    <v>       0.50166896       0.40525304       0.65634914 </v>
   </varray>
  </structure>
  <varray name="forces" >
   <v>       1.33443244      -0.60287366      -0.37275721 </v>
   <v>       0.17387711       0.39386151       0.05631436 </v>
   <v>      -0.10462192       0.05736594      -0.18389099 </v>
   <v>       0.14274072      -0.20169567       0.51110351 </v>
   <v>       0.02570118      -0.25001944      -0.07435995 </v>
   <v>      -0.36294721       0.88348555       0.82052428 </v>
   <v>       0.02190627      -0.02054165       0.17391410 </v>
   <v>      -0.67842499      -0.26076319       0.60658068 </v>
   <v>      -0.80493621       0.39356544      -0.42773221 </v>
   <v>       0.08975601       0.14092007       0.18622231 </v>
   <v>      -0.17941144      -0.54937864       0.33086853 </v>
   <v>      -0.14643958       0.57560730      -0.18477824 </v>
   <v>      -0.06318418       0.40630230       0.06538546 </v>
   <v>       0.15452887      -0.26224566      -0.66081439 </v>
   <v>       0.31112938      -0.04238568      -0.38369268 </v>
   <v>       0.08319595      -0.63086831      -0.41474147 </v>
  </varray>
  <varray name="stress" >
   <v>      -0.35299913      -0.80501063       1.55551685 </v>
   <v>      -0.80501063      -1.87921723       0.93418736 </v>
   <v>       1.55551687       0.93418737      -2.47362985 </v>
  </varray>
  <energy>
   <i name="e_fr_energy">   -100.23411593 </i>
   <i name="e_wo_entrp">   -100.23991383 </i>
   <i name="e_0_energy">   -100.23604856 </i>
   <i name="kinetic">      0.89401032 </i>
   <i name="lattice kinetic">      0.00000000 </i>
   <i name="nosepot">     -0.00001544 </i>
   <i name="nosekinetic">      0.00000002 </i>
   <i name="total">    -99.34012103 </i>
  </energy>
  <time name="totalsc">    3.87    3.96</time>
 </calculation>
 <calculation>
  <scstep>
   <time name="diag">    0.03    0.03</time>
   <time name="diis">    0.14    0.15</time>
   <time name="orth">    0.00    0.00</time>
   <time name="total">    0.31    0.31</time>
   <energy>
    <i name="alphaZ">      9.71200593 </i>
    <i name="ewald">   1862.98534215 </i>
    <i name="hartreedc">  -3689.34736545 </i>
    <i name="XCdc">    179.87769643 </i>
    <i name="pawpsdc">   4228.27397611 </i>
    <i name="pawaedc">  -4240.61549059 </i>
    <i name="eentropy">      0.00579791 </i>
    <i name="bandstr">   -609.93506349 </i>
    <i name="atom">   2158.97731088 </i>
    <i name="e_fr_energy">   -100.06579012 </i>
    <i name="e_wo_entrp">   -100.07158803 </i>
    <i name="e_0_energy">   -100.06772276 </i>
   </energy>
  </scstep>
  <scstep>
   <time name="diag">    0.03    0.03</time>
   <time name="diis">    0.15    0.15</time>
   <time name="orth">    0.00    0.00</time>
   <time name="total">    0.31    0.32</time>
   <energy>
    <i name="e_fr_energy">   -100.06665875 </i>
    <i name="e_wo_entrp">   -100.07245665 </i>
    <i name="e_0_energy">   -100.06859138 </i>
   </energy>
  </scstep>
  <scstep>
   <time name="diag">    0.03    0.03</time>
   <time name="diis">    0.16    0.16</time>
   <time name="orth">    0.00    0.00</time>
   <time name="total">    0.32    0.32</time>
   <energy>
    <i name="e_fr_energy">   -100.06683045 </i>
    <i name="e_wo_entrp">   -100.07262836 </i>
    <i name="e_0_energy">   -100.06876309 </i>
   </energy>
  </scstep>
  <scstep>
   <time name="diag">    0.03    0.03</time>
   <time name="diis">    0.14    0.14</time>
   <time name="orth">    0.00    0.00</time>
   <time name="total">    0.30    0.31</time>
   <energy>
    <i name="e_fr_energy">   -100.06683636 </i>
    <i name="e_wo_entrp">   -100.07263427 </i>
    <i name="e_0_energy">   -100.06876900 </i>
   </energy>
  </scstep>
  <scstep>
   <time name="diag">    0.03    0.03</time>
   <time name="diis">    0.15    0.15</time>
   <time name="orth">    0.00    0.00</time>
   <time name="total">    0.31    0.31</time>
   <energy>
    <i name="e_fr_energy">   -100.06684993 </i>
    <i name="e_wo_entrp">   -100.07264784 </i>
    <i name="e_0_energy">   -100.06878257 </i>
   </energy>
  </scstep>
  <scstep>
   <time name="diag">    0.03    0.03</time>
   <time name="diis">    0.11    0.11</time>
   <time name="orth">    0.00    0.00</time>
   <time name="total">    0.25    0.25</time>
   <energy>
    <i name="alphaZ">      9.71200593 </i>
    <i name="ewald">   1862.98534215 </i>
    <i name="hartreedc">  -3689.39074347 </i>
    <i name="XCdc">    179.87999706 </i>
    <i name="pawpsdc">   4231.87468578 </i>
    <i name="pawaedc">  -4244.21943927 </i>
    <i name="eentropy">      0.00579791 </i>
    <i name="bandstr">   -609.89180815 </i>
    <i name="atom">   2158.97731088 </i>
    <i name="e_fr_energy">   -100.06685119 </i>
    <i name="e_wo_entrp">   -100.07264909 </i>
    <i name="e_0_energy">   -100.06878382 </i>
   </energy>
  </scstep>
  <structure>
   <crystal>
    <varray name="basis" >
     <v>       7.75910000       0.00000000       0.00000000 </v>
     <v>       0.00000000      11.73340000       0.00000000 </v>
     <v>       0.00000000       0.00000000      11.31680000 </v>
    </varray>
    <i name="volume">   1030.28853300 </i>
    <varray name="rec_basis" >
     <v>       0.12888093       0.00000000       0.00000000 </v>
     <v>       0.00000000       0.08522679       0.00000000 </v>
     <v>       0.00000000       0.00000000       0.08836420 </v>
    </varray>
   </crystal>
   <varray name="positions" >
    <v>       0.49918927       0.71230129       0.54503995 </v>
    <v>       0.49879165       0.58201443       0.54605026 </v>
    <v>       0.50008161       0.51944330       0.44240270 </v>
    <v>       0.49740383       0.40040495       0.44054548 </v>
    <v>       0.50197135       0.34815999       0.55399932 </v>
    <v>       0.50319336       0.51746600       0.65072739 </v>
    <v>       0.50163382       0.57416983       0.33393665 </v>
    <v>       0.61741121       0.74491216       0.49293521 </v>
    <v>       0.39195312       0.74120956       0.49665990 </v>
    <v>       0.49501995       0.74521341       0.63441361 </v>
    <v>       0.53889272       0.38675495       0.26584166 </v>
    <v>       0.53572066       0.25547114       0.34394849 </v>
    <v>       0.51003065       0.25313809       0.55699397 </v>
    <v>       0.48980072       0.56312915       0.73894993 </v>
    <v>       0.49332640       0.33901965       0.33663139 </v>
    <v>       0.50168208       0.40552340       0.65710149 </v>
   </varray>
  </structure>
  <varray name="forces" >
   <v>       2.18064875      -1.15504673      -0.62836915 </v>
   <v>       0.34024760       0.71074985       0.07573055 </v>
   <v>      -0.20168778       0.12441349      -0.36225527 </v>
   <v>       0.27042017      -0.36347256       0.99403181 </v>
   <v>       0.06158102      -0.38369641      -0.18369967 </v>
   <v>      -0.73126734       1.66542151       1.38936707 </v>
   <v>       0.01814169      -0.05850985       0.32497069 </v>
   <v>      -1.05555991      -0.39723220       1.01896908 </v>
   <v>      -1.39005579       0.65699822      -0.75513334 </v>
   <v>       0.15501068       0.23378525       0.31594999 </v>
   <v>      -0.27736178      -0.92088912       0.48964121 </v>
   <v>      -0.17406224       0.94439009      -0.32897029 </v>
   <v>      -0.13407817       0.64226740       0.12674563 </v>
   <v>       0.33737167      -0.39614621      -1.08072983 </v>
   <v>       0.42867563      -0.01524954      -0.57832435 </v>
   <v>       0.16980908      -1.28655834      -0.76456977 </v>
  </varray>
  <varray name="stress" >
   <v>      -0.32802294      -1.29370289       2.68982414 </v>
   <v>      -1.29370288      -2.76231831       1.39233029 </v>
   <v>       2.68982413       1.39233030      -4.16053468 </v>
  </varray>
  <energy>
   <i name="e_fr_energy">   -100.06685119 </i>
   <i name="e_wo_entrp">   -100.07264909 </i>
   <i name="e_0_energy">   -100.06878382 </i>
   <i name="kinetic">      0.73648921 </i>
   <i name="lattice kinetic">      0.00000000 </i>
   <i name="nosepot">     -0.00177602 </i>
   <i name="nosekinetic">      0.00025464 </i>
   <i name="total">    -99.33188336 </i>
  </energy>
  <time name="totalsc">    2.43    2.51</time>
 </calculation>
 <calculation>
  <scstep>
   <time name="diag">    0.03    0.03</time>
   <time name="diis">    0.14    0.15</time>
   <time name="orth">    0.00    0.00</time>
   <time name="total">    0.31    0.32</time>
   <energy>
    <i name="alphaZ">      9.71200593 </i>
    <i name="ewald">   1857.26953788 </i>
    <i name="hartreedc">  -3683.61616235 </i>
    <i name="XCdc">    179.78473991 </i>
    <i name="pawpsdc">   4222.97670818 </i>
    <i name="pawaedc">  -4235.31577191 </i>
    <i name="eentropy">      0.00579791 </i>
    <i name="bandstr">   -609.72939902 </i>
    <i name="atom">   2158.97731088 </i>
    <i name="e_fr_energy">    -99.93523260 </i>
    <i name="e_wo_entrp">    -99.94103051 </i>
    <i name="e_0_energy">    -99.93716524 </i>
   </energy>
  </scstep>
  <scstep>
   <time name="diag">    0.03    0.03</time>
   <time name="diis">    0.15    0.15</time>
   <time name="orth">    0.00    0.00</time>
   <time name="total">    0.31    0.32</time>
   <energy>
    <i name="e_fr_energy">    -99.93558328 </i>
    <i name="e_wo_entrp">    -99.94138118 </i>
    <i name="e_0_energy">    -99.93751591 </i>
   </energy>
  </scstep>
  <scstep>
   <time name="diag">    0.03    0.03</time>
   <time name="diis">    0.15    0.15</time>
   <time name="orth">    0.00    0.00</time>
   <time name="total">    0.32    0.32</time>
   <energy>
    <i name="e_fr_energy">    -99.93565924 </i>
    <i name="e_wo_entrp">    -99.94145715 </i>
    <i name="e_0_energy">    -99.93759188 </i>
   </energy>
  </scstep>
  <scstep>
   <time name="diag">    0.04    0.04</time>
   <time name="diis">    0.14    0.14</time>
   <time name="orth">    0.00    0.00</time>
   <time name="total">    0.31    0.31</time>
   <energy>
    <i name="e_fr_energy">    -99.93567659 </i>
    <i name="e_wo_entrp">    -99.94147449 </i>
    <i name="e_0_energy">    -99.93760922 </i>
   </energy>
  </scstep>
  <scstep>
   <time name="diag">    0.03    0.03</time>
   <time name="diis">    0.12    0.12</time>
   <time name="orth">    0.00    0.00</time>
   <time name="total">    0.28    0.29</time>
   <energy>
    <i name="e_fr_energy">    -99.93568085 </i>
    <i name="e_wo_entrp">    -99.94147876 </i>
    <i name="e_0_energy">    -99.93761349 </i>
   </energy>
  </scstep>
  <scstep>
   <time name="diag">    0.03    0.03</time>
   <time name="diis">    0.11    0.11</time>
   <time name="orth">    0.00    0.00</time>
   <time name="total">    0.25    0.25</time>
   <energy>
    <i name="alphaZ">      9.71200593 </i>
    <i name="ewald">   1857.26953788 </i>
    <i name="hartreedc">  -3683.65308038 </i>
    <i name="XCdc">    179.78755993 </i>
    <i name="pawpsdc">   4218.71436131 </i>
    <i name="pawaedc">  -4231.05084064 </i>
    <i name="eentropy">      0.00579791 </i>
    <i name="bandstr">   -609.69833489 </i>
    <i name="atom">   2158.97731088 </i>
    <i name="e_fr_energy">    -99.93568208 </i>
    <i name="e_wo_entrp">    -99.94147998 </i>
    <i name="e_0_energy">    -99.93761471 </i>
   </energy>
  </scstep>
  <structure>
   <crystal>
    <varray name="basis" >
     <v>       7.75910000       0.00000000       0.00000000 </v>
     <v>       0.00000000      11.73340000       0.00000000 </v>
     <v>       0.00000000       0.00000000      11.31680000 </v>
    </varray>
    <i name="volume">   1030.28853300 </i>
    <varray name="rec_basis" >
     <v>       0.12888093       0.00000000       0.00000000 </v>
     <v>       0.00000000       0.08522679       0.00000000 </v>
     <v>       0.00000000       0.00000000       0.08836420 </v>
    </varray>
   </crystal>
   <varray name="positions" >
    <v>       0.49912875       0.71307870       0.54555706 </v>
    <v>       0.49827249       0.58173216       0.54604459 </v>
    <v>       0.50017649       0.51953029       0.44229861 </v>
    <v>       0.49601233       0.40054942       0.44016239 </v>
    <v>       0.50219908       0.34834630       0.55419733 </v>
    <v>       0.50448282       0.51678014       0.65060530 </v>
    <v>       0.50191407       0.57411430       0.33320807 </v>
    <v>       0.61742573       0.74503019       0.49177104 </v>
    <v>       0.39265260       0.74066441       0.49556604 </v>
    <v>       0.49295973       0.74579659       0.63485318 </v>
    <v>       0.54117226       0.38750353       0.26733920 </v>
    <v>       0.53252181       0.25458487       0.34560561 </v>
    <v>       0.51363314       0.25323262       0.55617867 </v>
    <v>       0.48510296       0.56225413       0.73919578 </v>
    <v>       0.49346597       0.33875946       0.33677255 </v>
    <v>       0.50171034       0.40571862       0.65780823 </v>
   </varray>
  </structure>
  <varray name="forces" >
   <v>       2.21078630      -1.46694419      -0.89807096 </v>
   <v>       0.48692728       0.96479211       0.10336600 </v>
   <v>      -0.27984257       0.17394453      -0.51674535 </v>
   <v>       0.37753281      -0.46523478       1.38565948 </v>
   <v>       0.07598118      -0.39817186      -0.28986439 </v>
   <v>      -1.07688460       2.26637712       1.64780374 </v>
   <v>       0.02265323      -0.10625673       0.47426646 </v>
   <v>      -1.13781855      -0.40862560       1.22218505 </v>
   <v>      -1.41595788       0.67913819      -0.72292266 </v>
   <v>       0.19668881       0.26407908       0.30974654 </v>
   <v>      -0.28254962      -1.07435791       0.39060580 </v>
   <v>      -0.10630906       0.99458016      -0.42874004 </v>
   <v>      -0.19832980       0.70549354       0.18571266 </v>
   <v>       0.50656742      -0.39135175      -1.22130582 </v>
   <v>       0.36366737       0.10808948      -0.52537498 </v>
   <v>       0.25127431      -1.86943221      -1.06286320 </v>
  </varray>
  <varray name="stress" >
   <v>      -0.52258511      -1.38929115       2.95791760 </v>
   <v>      -1.38929114      -2.64864907       1.71734960 </v>
   <v>       2.95791759       1.71734961      -5.35277138 </v>
  </varray>
  <energy>
   <i name="e_fr_energy">    -99.93568208 </i>
   <i name="e_wo_entrp">    -99.94147998 </i>
   <i name="e_0_energy">    -99.93761471 </i>
   <i name="kinetic">      0.61295975 </i>
   <i name="lattice kinetic">      0.00000000 </i>
   <i name="nosepot">     -0.00896323 </i>
   <i name="nosekinetic">      0.00247623 </i>
   <i name="total">    -99.32920932 </i>
  </energy>
  <time name="totalsc">    2.41    2.54</time>
 </calculation>
 <calculation>
  <scstep>
   <time name="diag">    0.03    0.03</time>
   <time name="diis">    0.15    0.15</time>
   <time name="orth">    0.00    0.00</time>
   <time name="total">    0.31    0.32</time>
   <energy>
    <i name="alphaZ">      9.71200593 </i>
    <i name="ewald">   1853.43832311 </i>
    <i name="hartreedc">  -3679.57464595 </i>
    <i name="XCdc">    179.76746320 </i>
    <i name="pawpsdc">   4212.23472976 </i>
    <i name="pawaedc">  -4224.56965668 </i>
    <i name="eentropy">      0.00579791 </i>
    <i name="bandstr">   -609.87636446 </i>
    <i name="atom">   2158.97731088 </i>
    <i name="e_fr_energy">    -99.88503630 </i>
    <i name="e_wo_entrp">    -99.89083421 </i>
    <i name="e_0_energy">    -99.88696894 </i>
   </energy>
  </scstep>
  <scstep>
   <time name="diag">    0.03    0.03</time>
   <time name="diis">    0.16    0.16</time>
   <time name="orth">    0.00    0.00</time>
   <time name="total">    0.32    0.33</time>
   <energy>
    <i name="e_fr_energy">    -99.88514780 </i>
    <i name="e_wo_entrp">    -99.89094570 </i>
    <i name="e_0_energy">    -99.88708043 </i>
   </energy>
  </scstep>
  <scstep>
   <time name="diag">    0.03    0.03</time>
   <time name="diis">    0.15    0.15</time>
   <time name="orth">    0.00    0.00</time>
   <time name="total">    0.32    0.32</time>
   <energy>
    <i name="e_fr_energy">    -99.88517956 </i>
    <i name="e_wo_entrp">    -99.89097746 </i>
    <i name="e_0_energy">    -99.88711219 </i>
   </energy>
  </scstep>
  <scstep>
   <time name="diag">    0.03    0.03</time>
   <time name="diis">    0.12    0.12</time>
   <time name="orth">    0.00    0.00</time>
   <time name="total">    0.29    0.29</time>
   <energy>
    <i name="e_fr_energy">    -99.88519092 </i>
    <i name="e_wo_entrp">    -99.89098883 </i>
    <i name="e_0_energy">    -99.88712356 </i>
   </energy>
  </scstep>
  <scstep>
   <time name="diag">    0.03    0.03</time>
   <time name="diis">    0.11    0.11</time>
   <time name="orth">    0.00    0.00</time>
   <time name="total">    0.27    0.28</time>
   <energy>
    <i name="e_fr_energy">    -99.88519601 </i>
    <i name="e_wo_entrp">    -99.89099391 </i>
    <i name="e_0_energy">    -99.88712864 </i>
   </energy>
  </scstep>
  <scstep>
   <time name="diag">    0.03    0.03</time>
   <time name="diis">    0.10    0.10</time>
   <time name="orth">    0.00    0.00</time>
   <time name="total">    0.25    0.25</time>
   <energy>
    <i name="alphaZ">      9.71200593 </i>
    <i name="ewald">   1853.43832311 </i>
    <i name="hartreedc">  -3679.65943543 </i>
    <i name="XCdc">    179.77110583 </i>
    <i name="pawpsdc">   4213.16381422 </i>
    <i name="pawaedc">  -4225.49826388 </i>
    <i name="eentropy">      0.00579791 </i>
    <i name="bandstr">   -609.79585894 </i>
    <i name="atom">   2158.97731088 </i>
    <i name="e_fr_energy">    -99.88520036 </i>
    <i name="e_wo_entrp">    -99.89099827 </i>
    <i name="e_0_energy">    -99.88713300 </i>
   </energy>
  </scstep>
  <structure>
   <crystal>
    <varray name="basis" >
     <v>       7.75910000       0.00000000       0.00000000 </v>
     <v>       0.00000000      11.73340000       0.00000000 </v>
     <v>       0.00000000       0.00000000      11.31680000 </v>
    </varray>
    <i name="volume">   1030.28853300 </i>
    <varray name="rec_basis" >
     <v>       0.12888093       0.00000000       0.00000000 </v>
     <v>       0.00000000       0.08522679       0.00000000 </v>
     <v>       0.00000000       0.00000000       0.08836420 </v>
    </varray>
   </crystal>
   <varray name="positions" >
    <v>       0.49929747       0.71375992       0.54601280 </v>
    <v>       0.49780103       0.58151469       0.54604590 </v>
    <v>       0.50024291       0.51962986       0.44215679 </v>
    <v>       0.49465224       0.40066292       0.43987541 </v>
    <v>       0.50243603       0.34850647       0.55437545 </v>
    <v>       0.50566780       0.51624617       0.65059945 </v>
    <v>       0.50219745       0.57405399       0.33249638 </v>
    <v>       0.61602152       0.74481207       0.49164490 </v>
    <v>       0.39159037       0.74067637       0.49384757 </v>
    <v>       0.49113323       0.74660098       0.63555968 </v>
    <v>       0.54311234       0.38737054       0.26917876 </v>
    <v>       0.52917245       0.25451392       0.34690514 </v>
    <v>       0.51700864       0.25390961       0.55551721 </v>
    <v>       0.48101050       0.56105162       0.73839845 </v>
    <v>       0.49363878       0.33850432       0.33688205 </v>
    <v>       0.50176119       0.40580498       0.65845368 </v>
   </varray>
  </structure>
  <varray name="forces" >
   <v>       1.43312765      -1.55920784      -1.19152209 </v>
   <v>       0.62374090       1.14200252       0.11749501 </v>
   <v>      -0.35618631       0.20284546      -0.62378640 </v>
   <v>       0.48213645      -0.52074658       1.70164896 </v>
   <v>       0.07310805      -0.25260727      -0.37058217 </v>
   <v>      -1.38257811       2.63395251       1.58568347 </v>
   <v>       0.02804532      -0.13946902       0.60539027 </v>
   <v>      -0.93722894      -0.30833261       1.20641421 </v>
   <v>      -0.89463646       0.48528741      -0.30419881 </v>
   <v>       0.22124053       0.22348260       0.15329306 </v>
   <v>      -0.17595319      -0.99346902       0.04754518 </v>
   <v>       0.03614729       0.70816203      -0.46936830 </v>
   <v>      -0.24488740       0.58232614       0.23550953 </v>
   <v>       0.62904497      -0.24998853      -1.07523254 </v>
   <v>       0.11739033       0.32689975      -0.24716710 </v>
   <v>       0.32754068      -2.31105899      -1.30585139 </v>
  </varray>
  <varray name="stress" >
   <v>      -0.86190045      -1.09094489       2.21800864 </v>
   <v>      -1.09094487      -1.56572473       1.91166225 </v>
   <v>       2.21800867       1.91166225      -6.11140858 </v>
  </varray>
  <energy>
   <i name="e_fr_energy">    -99.88520036 </i>
   <i name="e_wo_entrp">    -99.89099827 </i>
   <i name="e_0_energy">    -99.88713300 </i>
   <i name="kinetic">      0.56785340 </i>
   <i name="lattice kinetic">      0.00000000 </i>
   <i name="nosepot">     -0.02455341 </i>
   <i name="nosekinetic">      0.00861057 </i>
   <i name="total">    -99.33328981 </i>
  </energy>
  <time name="totalsc">    2.40    2.51</time>
 </calculation>
 <calculation>
  <scstep>
   <time name="diag">    0.03    0.03</time>
   <time name="diis">    0.15    0.15</time>
   <time name="orth">    0.00    0.00</time>
   <time name="total">    0.31    0.32</time>
   <energy>
    <i name="alphaZ">      9.71200593 </i>
    <i name="ewald">   1851.40813313 </i>
    <i name="hartreedc">  -3677.18910711 </i>
    <i name="XCdc">    179.82686422 </i>
    <i name="pawpsdc">   4214.26784376 </i>
    <i name="pawaedc">  -4226.60566105 </i>
    <i name="eentropy">      0.00579791 </i>
    <i name="bandstr">   -610.26165348 </i>
    <i name="atom">   2158.97731088 </i>
    <i name="e_fr_energy">    -99.85846582 </i>
    <i name="e_wo_entrp">    -99.86426373 </i>
    <i name="e_0_energy">    -99.86039846 </i>
   </energy>
  </scstep>
  <scstep>
   <time name="diag">    0.03    0.03</time>
   <time name="diis">    0.15    0.15</time>
   <time name="orth">    0.00    0.00</time>
   <time name="total">    0.31    0.31</time>
   <energy>
    <i name="e_fr_energy">    -99.85855974 </i>
    <i name="e_wo_entrp">    -99.86435765 </i>
    <i name="e_0_energy">    -99.86049237 </i>
   </energy>
  </scstep>
  <scstep>
   <time name="diag">    0.03    0.03</time>
   <time name="diis">    0.15    0.15</time>
   <time name="orth">    0.00    0.00</time>
   <time name="total">    0.32    0.32</time>
   <energy>
    <i name="e_fr_energy">    -99.85856791 </i>
    <i name="e_wo_entrp">    -99.86436582 </i>
    <i name="e_0_energy">    -99.86050055 </i>
   </energy>
  </scstep>
  <scstep>
   <time name="diag">    0.03    0.03</time>
   <time name="diis">    0.14    0.14</time>
   <time name="orth">    0.00    0.00</time>
   <time name="total">    0.31    0.31</time>
   <energy>
    <i name="e_fr_energy">    -99.85857482 </i>
    <i name="e_wo_entrp">    -99.86437273 </i>
    <i name="e_0_energy">    -99.86050746 </i>
   </energy>
  </scstep>
  <scstep>
   <time name="diag">    0.03    0.03</time>
   <time name="diis">    0.11    0.11</time>
   <time name="orth">    0.00    0.00</time>
   <time name="total">    0.28    0.28</time>
   <energy>
    <i name="e_fr_energy">    -99.85857857 </i>
    <i name="e_wo_entrp">    -99.86437648 </i>
    <i name="e_0_energy">    -99.86051120 </i>
   </energy>
  </scstep>
  <scstep>
   <time name="diag">    0.03    0.03</time>
   <time name="diis">    0.11    0.11</time>
   <time name="orth">    0.00    0.00</time>
   <time name="total">    0.26    0.26</time>
   <energy>
    <i name="alphaZ">      9.71200593 </i>
    <i name="ewald">   1851.40813313 </i>
    <i name="hartreedc">  -3677.29881871 </i>
    <i name="XCdc">    179.83170302 </i>
    <i name="pawpsdc">   4215.79569830 </i>
    <i name="pawaedc">  -4228.13505721 </i>
    <i name="eentropy">      0.00579791 </i>
    <i name="bandstr">   -610.15535367 </i>
    <i name="atom">   2158.97731088 </i>
    <i name="e_fr_energy">    -99.85858043 </i>
    <i name="e_wo_entrp">    -99.86437833 </i>
    <i name="e_0_energy">    -99.86051306 </i>
   </energy>
  </scstep>
  <structure>
   <crystal>
    <varray name="basis" >
     <v>       7.75910000       0.00000000       0.00000000 </v>
     <v>       0.00000000      11.73340000       0.00000000 </v>
     <v>       0.00000000       0.00000000      11.31680000 </v>
    </varray>
    <i name="volume">   1030.28853300 </i>
    <varray name="rec_basis" >
     <v>       0.12888093       0.00000000       0.00000000 </v>
     <v>       0.00000000       0.08522679       0.00000000 </v>
     <v>       0.00000000       0.00000000       0.08836420 </v>
    </varray>
   </crystal>
   <varray name="positions" >
    <v>       0.49961732       0.71434120       0.54638786 </v>
    <v>       0.49738971       0.58137372       0.54605515 </v>
    <v>       0.50027315       0.51974464       0.44196852 </v>
    <v>       0.49332821       0.40074197       0.43970640 </v>
    <v>       0.50268329       0.34865115       0.55452856 </v>
    <v>       0.50672155       0.51588806       0.65070625 </v>
    <v>       0.50248585       0.57398718       0.33180407 </v>
    <v>       0.61343114       0.74433698       0.49255097 </v>
    <v>       0.38939880       0.74108982       0.49184986 </v>
    <v>       0.48956428       0.74759876       0.63640457 </v>
    <v>       0.54485309       0.38641511       0.27107799 </v>
    <v>       0.52583323       0.25502782       0.34781561 </v>
    <v>       0.52011374       0.25507530       0.55505018 </v>
    <v>       0.47766151       0.55963000       0.73667074 </v>
    <v>       0.49382408       0.33826600       0.33697713 </v>
    <v>       0.50184202       0.40575600       0.65902555 </v>
   </varray>
  </structure>
  <varray name="forces" >
   <v>       0.18232979      -1.56744249      -1.30639610 </v>
   <v>       0.73197744       1.24382043       0.12189886 </v>
   <v>      -0.41612822       0.21385588      -0.68451802 </v>
   <v>       0.57939298      -0.50507528       1.88271438 </v>
   <v>       0.05276706       0.01799057      -0.41799572 </v>
   <v>      -1.58828746       2.69189784       1.21360750 </v>
   <v>       0.03303113      -0.16664533       0.71325942 </v>
   <v>      -0.44505406      -0.09606314       0.95139116 </v>
   <v>      -0.16028090       0.21635618       0.27239509 </v>
   <v>       0.23665770       0.12687306      -0.10182895 </v>
   <v>       0.03437489      -0.71194642      -0.46546298 </v>
   <v>       0.21277400       0.14623770      -0.44428883 </v>
   <v>      -0.26500838       0.29258481       0.26888518 </v>
   <v>       0.67205361       0.02240780      -0.64635229 </v>
   <v>      -0.26996602       0.61318978       0.18542883 </v>
   <v>       0.39832743      -2.55862031      -1.49518080 </v>
  </varray>
  <varray name="stress" >
   <v>      -1.06440243      -0.61143271       0.69790815 </v>
   <v>      -0.61143270       0.17405452       1.90456333 </v>
   <v>       0.69790815       1.90456333      -6.32204570 </v>
  </varray>
  <energy>
   <i name="e_fr_energy">    -99.85858043 </i>
   <i name="e_wo_entrp">    -99.86437833 </i>
   <i name="e_0_energy">    -99.86051306 </i>
   <i name="kinetic">      0.55114620 </i>
   <i name="lattice kinetic">      0.00000000 </i>
   <i name="nosepot">     -0.04975771 </i>
   <i name="nosekinetic">      0.01895364 </i>
   <i name="total">    -99.33823830 </i>
  </energy>
  <time name="totalsc">    2.40    2.51</time>
 </calculation>
 <calculation>
  <scstep>
   <time name="diag">    0.03    0.03</time>
   <time name="diis">    0.15    0.15</time>
   <time name="orth">    0.00    0.00</time>
   <time name="total">    0.31    0.32</time>
   <energy>
    <i name="alphaZ">      9.71200593 </i>
    <i name="ewald">   1850.35171866 </i>
    <i name="hartreedc">  -3675.71087111 </i>
    <i name="XCdc">    179.94149619 </i>
    <i name="pawpsdc">   4223.68590846 </i>
    <i name="pawaedc">  -4236.03427190 </i>
    <i name="eentropy">      0.00579791 </i>
    <i name="bandstr">   -610.71443953 </i>
    <i name="atom">   2158.97731088 </i>
    <i name="e_fr_energy">    -99.78534452 </i>
    <i name="e_wo_entrp">    -99.79114242 </i>
    <i name="e_0_energy">    -99.78727715 </i>
   </energy>
  </scstep>
  <scstep>
   <time name="diag">    0.03    0.03</time>
   <time name="diis">    0.15    0.15</time>
   <time name="orth">    0.00    0.00</time>
   <time name="total">    0.32    0.32</time>
   <energy>
    <i name="e_fr_energy">    -99.78552093 </i>
    <i name="e_wo_entrp">    -99.79131883 </i>
    <i name="e_0_energy">    -99.78745356 </i>
   </energy>
  </scstep>
  <scstep>
   <time name="diag">    0.03    0.03</time>
   <time name="diis">    0.15    0.15</time>
   <time name="orth">    0.00    0.00</time>
   <time name="total">    0.32    0.32</time>
   <energy>
    <i name="e_fr_energy">    -99.78552059 </i>
    <i name="e_wo_entrp">    -99.79131849 </i>
    <i name="e_0_energy">    -99.78745322 </i>
   </energy>
  </scstep>
  <scstep>
   <time name="diag">    0.03    0.03</time>
   <time name="diis">    0.13    0.14</time>
   <time name="orth">    0.00    0.00</time>
   <time name="total">    0.31    0.31</time>
   <energy>
    <i name="e_fr_energy">    -99.78552496 </i>
    <i name="e_wo_entrp">    -99.79132286 </i>
    <i name="e_0_energy">    -99.78745759 </i>
   </energy>
  </scstep>
  <scstep>
   <time name="diag">    0.03    0.03</time>
   <time name="diis">    0.12    0.12</time>
   <time name="orth">    0.00    0.00</time>
   <time name="total">    0.28    0.28</time>
   <energy>
    <i name="e_fr_energy">    -99.78552739 </i>
    <i name="e_wo_entrp">    -99.79132529 </i>
    <i name="e_0_energy">    -99.78746002 </i>
   </energy>
  </scstep>
  <scstep>
   <time name="diag">    0.03    0.03</time>
   <time name="diis">    0.11    0.11</time>
   <time name="orth">    0.00    0.00</time>
   <time name="total">    0.25    0.25</time>
   <energy>
    <i name="alphaZ">      9.71200593 </i>
    <i name="ewald">   1850.35171866 </i>
    <i name="hartreedc">  -3675.74293006 </i>
    <i name="XCdc">    179.94275520 </i>
    <i name="pawpsdc">   4224.74352303 </i>
    <i name="pawaedc">  -4237.09274621 </i>
    <i name="eentropy">      0.00579791 </i>
    <i name="bandstr">   -610.68296358 </i>
    <i name="atom">   2158.97731088 </i>
    <i name="e_fr_energy">    -99.78552825 </i>
    <i name="e_wo_entrp">    -99.79132616 </i>
    <i name="e_0_energy">    -99.78746089 </i>
   </energy>
  </scstep>
  <structure>
   <crystal>
    <varray name="basis" >
     <v>       7.75910000       0.00000000       0.00000000 </v>
     <v>       0.00000000      11.73340000       0.00000000 </v>
     <v>       0.00000000       0.00000000      11.31680000 </v>
    </varray>
    <i name="volume">   1030.28853300 </i>
    <varray name="rec_basis" >
     <v>       0.12888093       0.00000000       0.00000000 </v>
     <v>       0.00000000       0.08522679       0.00000000 </v>
     <v>       0.00000000       0.00000000       0.08836420 </v>
    </varray>
   </crystal>
   <varray name="positions" >
    <v>       0.49996131       0.71482356       0.54667501 </v>
    <v>       0.49704845       0.58131651       0.54607295 </v>
    <v>       0.50026055       0.51987611       0.44172801 </v>
    <v>       0.49204403       0.40078755       0.43966910 </v>
    <v>       0.50294003       0.34879947       0.55465385 </v>
    <v>       0.50762618       0.51571022       0.65090121 </v>
    <v>       0.50278105       0.57391219       0.33113285 </v>
    <v>       0.61024256       0.74377497       0.49428839 </v>
    <v>       0.38697218       0.74168918       0.49005461 </v>
    <v>       0.48826747       0.74871745       0.63717485 </v>
    <v>       0.54666427       0.38485484       0.27260667 </v>
    <v>       0.52270850       0.25567108       0.34835825 </v>
    <v>       0.52293543       0.25650185       0.55480657 </v>
    <v>       0.47510247       0.55820484       0.73436028 </v>
    <v>       0.49398823       0.33806038       0.33708476 </v>
    <v>       0.50195988       0.40555493       0.65951428 </v>
   </varray>
  </structure>
  <varray name="forces" >
   <v>      -1.24869839      -1.64480459      -1.07223368 </v>
   <v>       0.82079809       1.29302687       0.10292375 </v>
   <v>      -0.46465335       0.21251926      -0.69170841 </v>
   <v>       0.68789976      -0.44495439       1.93669727 </v>
   <v>       0.00752026       0.34561528      -0.43653188 </v>
   <v>      -1.68363552       2.44291711       0.56292577 </v>
   <v>       0.02820316      -0.17510027       0.79869638 </v>
   <v>       0.32980776       0.22220835       0.45559854 </v>
   <v>       0.47534788      -0.01128493       0.76601589 </v>
   <v>       0.24585806       0.00541210      -0.36498414 </v>
   <v>       0.28462157      -0.34411627      -0.98337858 </v>
   <v>       0.36551553      -0.50769377      -0.36677491 </v>
   <v>      -0.25696814      -0.10205559       0.28102650 </v>
   <v>       0.61597753       0.40443565       0.03074545 </v>
   <v>      -0.68659881       0.89694999       0.62980616 </v>
   <v>       0.46257163      -2.57047464      -1.63269547 </v>
  </varray>
  <varray name="stress" >
   <v>      -0.71699959      -0.08890723      -1.20885026 </v>
   <v>      -0.08890725       2.14656203       1.81373498 </v>
   <v>      -1.20885027       1.81373497      -5.84563269 </v>
  </varray>
  <energy>
   <i name="e_fr_energy">    -99.78552825 </i>
   <i name="e_wo_entrp">    -99.79132616 </i>
[...]
        <r>  0.0000  0.0000  0.0009  0.0231  0.0000  0.0000  0.0000  0.0000  0.0000 </r>
        <r>  0.0000  0.0000  0.0005  0.0272  0.0000  0.0000  0.0000  0.0000  0.0000 </r>
        <r>  0.0006  0.0000  0.0000  0.0000  0.0000  0.0000  0.0000  0.0000  0.0000 </r>
        <r>  0.0012  0.0000  0.0000  0.0000  0.0000  0.0000  0.0000  0.0000  0.0000 </r>
        <r>  0.0032  0.0001  0.0001  0.0000  0.0000  0.0000  0.0000  0.0000  0.0000 </r>
        <r>  0.0004  0.0000  0.0000  0.0006  0.0000  0.0000  0.0000  0.0000  0.0000 </r>
        <r>  0.0001  0.0000  0.0000  0.0000  0.0000  0.0000  0.0000  0.0000  0.0000 </r>
        <r>  0.0009  0.0000  0.0001  0.0032  0.0000  0.0000  0.0000  0.0000  0.0000 </r>
        <r>  0.0000  0.0000  0.0001  0.0008  0.0000  0.0000  0.0000  0.0000  0.0000 </r>
        <r>  0.0007  0.0000  0.0016  0.0082  0.0000  0.0000  0.0000  0.0000  0.0000 </r>
        <r>  0.0000  0.0001  0.0050  0.1863  0.0000  0.0000  0.0000  0.0000  0.0000 </r>
       </set>
       <set comment="band 26">
        <r>  0.0094  0.0001  0.0003  0.0000  0.0000  0.0000  0.0000  0.0000  0.0000 </r>
        <r>  0.0000  0.0016  0.0001  0.0101  0.0000  0.0000  0.0000  0.0000  0.0000 </r>
        <r>  0.0000  0.0023  0.0057  0.0002  0.0000  0.0000  0.0000  0.0000  0.0000 </r>
        <r>  0.0000  0.0006  0.0000  0.0164  0.0000  0.0000  0.0000  0.0000  0.0000 </r>
        <r>  0.0009  0.0034  0.0016  0.0028  0.0000  0.0000  0.0000  0.0000  0.0000 </r>
        <r>  0.0005  0.0000  0.0000  0.0141  0.0000  0.0000  0.0000  0.0000  0.0000 </r>
        <r>  0.0034  0.0003  0.0012  0.0002  0.0000  0.0000  0.0000  0.0000  0.0000 </r>
        <r>  0.0004  0.0001  0.0003  0.0002  0.0000  0.0000  0.0000  0.0000  0.0000 </r>
        <r>  0.0001  0.0000  0.0007  0.0000  0.0000  0.0000  0.0000  0.0000  0.0000 </r>
        <r>  0.0005  0.0001  0.0001  0.0008  0.0000  0.0000  0.0000  0.0000  0.0000 </r>
        <r>  0.0000  0.0001  0.0026  0.0002  0.0000  0.0000  0.0000  0.0000  0.0000 </r>
        <r>  0.0008  0.0024  0.0006  0.0005  0.0000  0.0000  0.0000  0.0000  0.0000 </r>
        <r>  0.0012  0.0012  0.0000  0.0001  0.0000  0.0000  0.0000  0.0000  0.0000 </r>
        <r>  0.0007  0.0002  0.0001  0.0004  0.0000  0.0000  0.0000  0.0000  0.0000 </r>
        <r>  0.0141  0.0024  0.0001  0.0060  0.0000  0.0000  0.0000  0.0000  0.0000 </r>
        <r>  0.0000  0.0000  0.0004  0.0012  0.0000  0.0000  0.0000  0.0000  0.0000 </r>
       </set>
       <set comment="band 27">
        <r>  0.0009  0.0004  0.0000  0.0000  0.0000  0.0000  0.0000  0.0000  0.0000 </r>
        <r>  0.0001  0.0008  0.0019  0.0957  0.0000  0.0000  0.0000  0.0000  0.0000 </r>
        <r>  0.0000  0.0000  0.0002  0.0011  0.0000  0.0000  0.0000  0.0000  0.0000 </r>
        <r>  0.0000  0.0026  0.0045  0.1164  0.0000  0.0000  0.0000  0.0000  0.0000 </r>
        <r>  0.0013  0.0011  0.0010  0.0456  0.0000  0.0000  0.0000  0.0000  0.0000 </r>
        <r>  0.0007  0.0000  0.0068  0.0929  0.0000  0.0000  0.0000  0.0000  0.0000 </r>
        <r>  0.0004  0.0000  0.0001  0.0004  0.0000  0.0000  0.0000  0.0000  0.0000 </r>
        <r>  0.0034  0.0001  0.0001  0.0001  0.0000  0.0000  0.0000  0.0000  0.0000 </r>
        <r>  0.0008  0.0000  0.0001  0.0000  0.0000  0.0000  0.0000  0.0000  0.0000 </r>
        <r>  0.0063  0.0002  0.0000  0.0001  0.0000  0.0000  0.0000  0.0000  0.0000 </r>
        <r>  0.0020  0.0000  0.0000  0.0019  0.0000  0.0000  0.0000  0.0000  0.0000 </r>
        <r>  0.0000  0.0001  0.0008  0.0012  0.0000  0.0000  0.0000  0.0000  0.0000 </r>
        <r>  0.0000  0.0001  0.0000  0.0021  0.0000  0.0000  0.0000  0.0000  0.0000 </r>
        <r>  0.0004  0.0001  0.0001  0.0038  0.0000  0.0000  0.0000  0.0000  0.0000 </r>
        <r>  0.0037  0.0007  0.0069  0.0210  0.0000  0.0000  0.0000  0.0000  0.0000 </r>
        <r>  0.0005  0.0001  0.0000  0.0033  0.0000  0.0000  0.0000  0.0000  0.0000 </r>
       </set>
       <set comment="band 28">
        <r>  0.0096  0.0079  0.0009  0.0002  0.0000  0.0000  0.0000  0.0000  0.0000 </r>
        <r>  0.0000  0.0001  0.0000  0.0001  0.0000  0.0000  0.0000  0.0000  0.0000 </r>
        <r>  0.0012  0.0020  0.0004  0.0000  0.0000  0.0000  0.0000  0.0000  0.0000 </r>
        <r>  0.0002  0.0016  0.0002  0.0002  0.0000  0.0000  0.0000  0.0000  0.0000 </r>
        <r>  0.0000  0.0002  0.0001  0.0002  0.0000  0.0000  0.0000  0.0000  0.0000 </r>
        <r>  0.0042  0.0038  0.0016  0.0000  0.0000  0.0000  0.0000  0.0000  0.0000 </r>
        <r>  0.0008  0.0025  0.0006  0.0000  0.0000  0.0000  0.0000  0.0000  0.0000 </r>
        <r>  0.0001  0.0002  0.0012  0.0013  0.0000  0.0000  0.0000  0.0000  0.0000 </r>
        <r>  0.0002  0.0000  0.0005  0.0000  0.0000  0.0000  0.0000  0.0000  0.0000 </r>
        <r>  0.0000  0.0000  0.0001  0.0021  0.0000  0.0000  0.0000  0.0000  0.0000 </r>
        <r>  0.0007  0.0000  0.0047  0.0013  0.0000  0.0000  0.0000  0.0000  0.0000 </r>
        <r>  0.0005  0.0009  0.0006  0.0001  0.0000  0.0000  0.0000  0.0000  0.0000 </r>
        <r>  0.0008  0.0000  0.0000  0.0000  0.0000  0.0000  0.0000  0.0000  0.0000 </r>
        <r>  0.0003  0.0010  0.0009  0.0002  0.0000  0.0000  0.0000  0.0000  0.0000 </r>
        <r>  0.0172  0.0009  0.0038  0.0015  0.0000  0.0000  0.0000  0.0000  0.0000 </r>
        <r>  0.0004  0.0006  0.0002  0.0004  0.0000  0.0000  0.0000  0.0000  0.0000 </r>
       </set>
       <set comment="band 29">
        <r>  0.0035  0.0009  0.0024  0.0002  0.0000  0.0000  0.0000  0.0000  0.0000 </r>
        <r>  0.0017  0.0002  0.0012  0.0002  0.0000  0.0000  0.0000  0.0000  0.0000 </r>
        <r>  0.0059  0.0002  0.0138  0.0003  0.0000  0.0000  0.0000  0.0000  0.0000 </r>
        <r>  0.0018  0.0020  0.0000  0.0000  0.0000  0.0000  0.0000  0.0000  0.0000 </r>
        <r>  0.0047  0.0106  0.0001  0.0001  0.0000  0.0000  0.0000  0.0000  0.0000 </r>
        <r>  0.0003  0.0001  0.0006  0.0001  0.0000  0.0000  0.0000  0.0000  0.0000 </r>
        <r>  0.0115  0.0011  0.0077  0.0001  0.0000  0.0000  0.0000  0.0000  0.0000 </r>
        <r>  0.0009  0.0001  0.0000  0.0000  0.0000  0.0000  0.0000  0.0000  0.0000 </r>
        <r>  0.0001  0.0000  0.0008  0.0000  0.0000  0.0000  0.0000  0.0000  0.0000 </r>
        <r>  0.0001  0.0000  0.0001  0.0003  0.0000  0.0000  0.0000  0.0000  0.0000 </r>
        <r>  0.0000  0.0001  0.0006  0.0002  0.0000  0.0000  0.0000  0.0000  0.0000 </r>
        <r>  0.0000  0.0031  0.0010  0.0000  0.0000  0.0000  0.0000  0.0000  0.0000 </r>
        <r>  0.0003  0.0035  0.0002  0.0000  0.0000  0.0000  0.0000  0.0000  0.0000 </r>
        <r>  0.0014  0.0000  0.0000  0.0000  0.0000  0.0000  0.0000  0.0000  0.0000 </r>
        <r>  0.0000  0.0153  0.0033  0.0001  0.0000  0.0000  0.0000  0.0000  0.0000 </r>
        <r>  0.0000  0.0002  0.0001  0.0000  0.0000  0.0000  0.0000  0.0000  0.0000 </r>
       </set>
       <set comment="band 30">
        <r>  0.0116  0.0000  0.0042  0.0000  0.0000  0.0000  0.0000  0.0000  0.0000 </r>
        <r>  0.0018  0.0027  0.0000  0.0000  0.0000  0.0000  0.0000  0.0000  0.0000 </r>
        <r>  0.0030  0.0004  0.0013  0.0000  0.0000  0.0000  0.0000  0.0000  0.0000 </r>
        <r>  0.0007  0.0002  0.0000  0.0000  0.0000  0.0000  0.0000  0.0000  0.0000 </r>
        <r>  0.0028  0.0018  0.0002  0.0003  0.0000  0.0000  0.0000  0.0000  0.0000 </r>
        <r>  0.0009  0.0025  0.0013  0.0000  0.0000  0.0000  0.0000  0.0000  0.0000 </r>
        <r>  0.0008  0.0001  0.0038  0.0001  0.0000  0.0000  0.0000  0.0000  0.0000 </r>
        <r>  0.0000  0.0002  0.0001  0.0000  0.0000  0.0000  0.0000  0.0000  0.0000 </r>
        <r>  0.0000  0.0006  0.0019  0.0000  0.0000  0.0000  0.0000  0.0000  0.0000 </r>
        <r>  0.0000  0.0002  0.0001  0.0005  0.0000  0.0000  0.0000  0.0000  0.0000 </r>
        <r>  0.0001  0.0000  0.0001  0.0001  0.0000  0.0000  0.0000  0.0000  0.0000 </r>
        <r>  0.0000  0.0005  0.0000  0.0000  0.0000  0.0000  0.0000  0.0000  0.0000 </r>
        <r>  0.0000  0.0006  0.0004  0.0000  0.0000  0.0000  0.0000  0.0000  0.0000 </r>
        <r>  0.0001  0.0002  0.0008  0.0001  0.0000  0.0000  0.0000  0.0000  0.0000 </r>
        <r>  0.0003  0.0001  0.0011  0.0004  0.0000  0.0000  0.0000  0.0000  0.0000 </r>
        <r>  0.0058  0.0002  0.0004  0.0003  0.0000  0.0000  0.0000  0.0000  0.0000 </r>
       </set>
       <set comment="band 31">
        <r>  0.0006  0.0007  0.0001  0.0019  0.0000  0.0000  0.0000  0.0000  0.0000 </r>
        <r>  0.0026  0.0007  0.0001  0.0018  0.0000  0.0000  0.0000  0.0000  0.0000 </r>
        <r>  0.0000  0.0010  0.0003  0.0012  0.0000  0.0000  0.0000  0.0000  0.0000 </r>
        <r>  0.0032  0.0032  0.0013  0.0001  0.0000  0.0000  0.0000  0.0000  0.0000 </r>
        <r>  0.0039  0.0009  0.0016  0.0003  0.0000  0.0000  0.0000  0.0000  0.0000 </r>
        <r>  0.0001  0.0006  0.0000  0.0003  0.0000  0.0000  0.0000  0.0000  0.0000 </r>
        <r>  0.0007  0.0004  0.0004  0.0000  0.0000  0.0000  0.0000  0.0000  0.0000 </r>
        <r>  0.0000  0.0000  0.0000  0.0001  0.0000  0.0000  0.0000  0.0000  0.0000 </r>
        <r>  0.0000  0.0001  0.0000  0.0000  0.0000  0.0000  0.0000  0.0000  0.0000 </r>
        <r>  0.0001  0.0000  0.0000  0.0008  0.0000  0.0000  0.0000  0.0000  0.0000 </r>
        <r>  0.0009  0.0004  0.0000  0.0000  0.0000  0.0000  0.0000  0.0000  0.0000 </r>
        <r>  0.0002  0.0005  0.0008  0.0004  0.0000  0.0000  0.0000  0.0000  0.0000 </r>
        <r>  0.0009  0.0013  0.0002  0.0000  0.0000  0.0000  0.0000  0.0000  0.0000 </r>
        <r>  0.0005  0.0000  0.0002  0.0000  0.0000  0.0000  0.0000  0.0000  0.0000 </r>
        <r>  0.0019  0.0011  0.0015  0.0001  0.0000  0.0000  0.0000  0.0000  0.0000 </r>
        <r>  0.0012  0.0022  0.0000  0.0002  0.0000  0.0000  0.0000  0.0000  0.0000 </r>
       </set>
       <set comment="band 32">
        <r>  0.0021  0.0003  0.0132  0.0004  0.0000  0.0000  0.0000  0.0000  0.0000 </r>
        <r>  0.0013  0.0004  0.0000  0.0051  0.0000  0.0000  0.0000  0.0000  0.0000 </r>
        <r>  0.0012  0.0002  0.0093  0.0022  0.0000  0.0000  0.0000  0.0000  0.0000 </r>
        <r>  0.0005  0.0003  0.0020  0.0015  0.0000  0.0000  0.0000  0.0000  0.0000 </r>
        <r>  0.0007  0.0006  0.0009  0.0007  0.0000  0.0000  0.0000  0.0000  0.0000 </r>
        <r>  0.0006  0.0004  0.0077  0.0030  0.0000  0.0000  0.0000  0.0000  0.0000 </r>
        <r>  0.0017  0.0046  0.0056  0.0005  0.0000  0.0000  0.0000  0.0000  0.0000 </r>
        <r>  0.0004  0.0007  0.0005  0.0002  0.0000  0.0000  0.0000  0.0000  0.0000 </r>
        <r>  0.0000  0.0002  0.0008  0.0001  0.0000  0.0000  0.0000  0.0000  0.0000 </r>
        <r>  0.0000  0.0006  0.0000  0.0007  0.0000  0.0000  0.0000  0.0000  0.0000 </r>
        <r>  0.0011  0.0000  0.0033  0.0010  0.0000  0.0000  0.0000  0.0000  0.0000 </r>
        <r>  0.0012  0.0001  0.0001  0.0000  0.0000  0.0000  0.0000  0.0000  0.0000 </r>
        <r>  0.0000  0.0001  0.0004  0.0002  0.0000  0.0000  0.0000  0.0000  0.0000 </r>
        <r>  0.0002  0.0015  0.0008  0.0001  0.0000  0.0000  0.0000  0.0000  0.0000 </r>
        <r>  0.0105  0.0002  0.0018  0.0017  0.0000  0.0000  0.0000  0.0000  0.0000 </r>
        <r>  0.0030  0.0000  0.0000  0.0045  0.0000  0.0000  0.0000  0.0000  0.0000 </r>
       </set>
       <set comment="band 33">
        <r>  0.0013  0.0070  0.0010  0.0001  0.0000  0.0000  0.0000  0.0000  0.0000 </r>
        <r>  0.0000  0.0043  0.0002  0.0021  0.0000  0.0000  0.0000  0.0000  0.0000 </r>
        <r>  0.0063  0.0072  0.0139  0.0050  0.0000  0.0000  0.0000  0.0000  0.0000 </r>
        <r>  0.0000  0.0000  0.0002  0.0028  0.0000  0.0000  0.0000  0.0000  0.0000 </r>
        <r>  0.0000  0.0101  0.0059  0.0001  0.0000  0.0000  0.0000  0.0000  0.0000 </r>
        <r>  0.0027  0.0080  0.0001  0.0001  0.0000  0.0000  0.0000  0.0000  0.0000 </r>
        <r>  0.0102  0.0004  0.0112  0.0003  0.0000  0.0000  0.0000  0.0000  0.0000 </r>
        <r>  0.0002  0.0000  0.0001  0.0005  0.0000  0.0000  0.0000  0.0000  0.0000 </r>
        <r>  0.0001  0.0000  0.0001  0.0001  0.0000  0.0000  0.0000  0.0000  0.0000 </r>
        <r>  0.0002  0.0006  0.0000  0.0000  0.0000  0.0000  0.0000  0.0000  0.0000 </r>
        <r>  0.0000  0.0004  0.0007  0.0004  0.0000  0.0000  0.0000  0.0000  0.0000 </r>
        <r>  0.0020  0.0000  0.0001  0.0000  0.0000  0.0000  0.0000  0.0000  0.0000 </r>
        <r>  0.0001  0.0021  0.0000  0.0002  0.0000  0.0000  0.0000  0.0000  0.0000 </r>
        <r>  0.0003  0.0003  0.0013  0.0003  0.0000  0.0000  0.0000  0.0000  0.0000 </r>
        <r>  0.0001  0.0002  0.0039  0.0005  0.0000  0.0000  0.0000  0.0000  0.0000 </r>
        <r>  0.0007  0.0003  0.0004  0.0010  0.0000  0.0000  0.0000  0.0000  0.0000 </r>
       </set>
       <set comment="band 34">
        <r>  0.0001  0.0009  0.0005  0.0169  0.0000  0.0000  0.0000  0.0000  0.0000 </r>
        <r>  0.0003  0.0000  0.0022  0.0090  0.0000  0.0000  0.0000  0.0000  0.0000 </r>
        <r>  0.0010  0.0035  0.0145  0.0081  0.0000  0.0000  0.0000  0.0000  0.0000 </r>
        <r>  0.0008  0.0003  0.0000  0.0236  0.0000  0.0000  0.0000  0.0000  0.0000 </r>
        <r>  0.0024  0.0001  0.0042  0.0006  0.0000  0.0000  0.0000  0.0000  0.0000 </r>
        <r>  0.0001  0.0001  0.0048  0.0005  0.0000  0.0000  0.0000  0.0000  0.0000 </r>
        <r>  0.0042  0.0007  0.0049  0.0047  0.0000  0.0000  0.0000  0.0000  0.0000 </r>
        <r>  0.0006  0.0006  0.0007  0.0000  0.0000  0.0000  0.0000  0.0000  0.0000 </r>
        <r>  0.0001  0.0000  0.0000  0.0005  0.0000  0.0000  0.0000  0.0000  0.0000 </r>
        <r>  0.0009  0.0002  0.0006  0.0025  0.0000  0.0000  0.0000  0.0000  0.0000 </r>
        <r>  0.0022  0.0004  0.0017  0.0009  0.0000  0.0000  0.0000  0.0000  0.0000 </r>
        <r>  0.0017  0.0013  0.0000  0.0002  0.0000  0.0000  0.0000  0.0000  0.0000 </r>
        <r>  0.0004  0.0000  0.0006  0.0004  0.0000  0.0000  0.0000  0.0000  0.0000 </r>
        <r>  0.0000  0.0005  0.0001  0.0004  0.0000  0.0000  0.0000  0.0000  0.0000 </r>
        <r>  0.0002  0.0004  0.0072  0.0064  0.0000  0.0000  0.0000  0.0000  0.0000 </r>
        <r>  0.0013  0.0002  0.0033  0.0103  0.0000  0.0000  0.0000  0.0000  0.0000 </r>
       </set>
       <set comment="band 35">
        <r>  0.0027  0.0000  0.0000  0.0047  0.0000  0.0000  0.0000  0.0000  0.0000 </r>
        <r>  0.0014  0.0001  0.0000  0.0030  0.0000  0.0000  0.0000  0.0000  0.0000 </r>
        <r>  0.0030  0.0012  0.0027  0.0018  0.0000  0.0000  0.0000  0.0000  0.0000 </r>
        <r>  0.0001  0.0006  0.0002  0.0005  0.0000  0.0000  0.0000  0.0000  0.0000 </r>
        <r>  0.0001  0.0014  0.0000  0.0000  0.0000  0.0000  0.0000  0.0000  0.0000 </r>
        <r>  0.0007  0.0004  0.0001  0.0004  0.0000  0.0000  0.0000  0.0000  0.0000 </r>
        <r>  0.0008  0.0001  0.0103  0.0000  0.0000  0.0000  0.0000  0.0000  0.0000 </r>
        <r>  0.0002  0.0001  0.0019  0.0000  0.0000  0.0000  0.0000  0.0000  0.0000 </r>
        <r>  0.0029  0.0001  0.0005  0.0000  0.0000  0.0000  0.0000  0.0000  0.0000 </r>
        <r>  0.0001  0.0001  0.0001  0.0002  0.0000  0.0000  0.0000  0.0000  0.0000 </r>
        <r>  0.0003  0.0011  0.0004  0.0004  0.0000  0.0000  0.0000  0.0000  0.0000 </r>
        <r>  0.0025  0.0023  0.0009  0.0000  0.0000  0.0000  0.0000  0.0000  0.0000 </r>
        <r>  0.0002  0.0001  0.0000  0.0001  0.0000  0.0000  0.0000  0.0000  0.0000 </r>
        <r>  0.0005  0.0002  0.0005  0.0002  0.0000  0.0000  0.0000  0.0000  0.0000 </r>
        <r>  0.0000  0.0115  0.0010  0.0028  0.0000  0.0000  0.0000  0.0000  0.0000 </r>
        <r>  0.0017  0.0006  0.0000  0.0007  0.0000  0.0000  0.0000  0.0000  0.0000 </r>
       </set>
       <set comment="band 36">
        <r>  0.0013  0.0005  0.0038  0.0016  0.0000  0.0000  0.0000  0.0000  0.0000 </r>
        <r>  0.0005  0.0006  0.0008  0.0016  0.0000  0.0000  0.0000  0.0000  0.0000 </r>
        <r>  0.0028  0.0004  0.0171  0.0013  0.0000  0.0000  0.0000  0.0000  0.0000 </r>
        <r>  0.0009  0.0002  0.0006  0.0004  0.0000  0.0000  0.0000  0.0000  0.0000 </r>
        <r>  0.0012  0.0000  0.0003  0.0000  0.0000  0.0000  0.0000  0.0000  0.0000 </r>
        <r>  0.0051  0.0003  0.0000  0.0001  0.0000  0.0000  0.0000  0.0000  0.0000 </r>
        <r>  0.0014  0.0020  0.0097  0.0009  0.0000  0.0000  0.0000  0.0000  0.0000 </r>
        <r>  0.0002  0.0010  0.0000  0.0013  0.0000  0.0000  0.0000  0.0000  0.0000 </r>
        <r>  0.0043  0.0000  0.0002  0.0001  0.0000  0.0000  0.0000  0.0000  0.0000 </r>
        <r>  0.0013  0.0001  0.0002  0.0001  0.0000  0.0000  0.0000  0.0000  0.0000 </r>
        <r>  0.0013  0.0000  0.0015  0.0003  0.0000  0.0000  0.0000  0.0000  0.0000 </r>
        <r>  0.0011  0.0001  0.0001  0.0000  0.0000  0.0000  0.0000  0.0000  0.0000 </r>
        <r>  0.0006  0.0001  0.0000  0.0002  0.0000  0.0000  0.0000  0.0000  0.0000 </r>
        <r>  0.0014  0.0004  0.0005  0.0000  0.0000  0.0000  0.0000  0.0000  0.0000 </r>
        <r>  0.0011  0.0007  0.0027  0.0000  0.0000  0.0000  0.0000  0.0000  0.0000 </r>
        <r>  0.0025  0.0003  0.0006  0.0000  0.0000  0.0000  0.0000  0.0000  0.0000 </r>
       </set>
      </set>
     </set>
    </set>
   </array>
  </projected>
 </calculation>
 <structure name="finalpos" >
  <crystal>
   <varray name="basis" >
    <v>       7.75910000       0.00000000       0.00000000 </v>
    <v>       0.00000000      11.73340000       0.00000000 </v>
    <v>       0.00000000       0.00000000      11.31680000 </v>
   </varray>
   <i name="volume">   1030.28853300 </i>
   <varray name="rec_basis" >
    <v>       0.12888093       0.00000000       0.00000000 </v>
    <v>       0.00000000       0.08522679       0.00000000 </v>
    <v>       0.00000000       0.00000000       0.08836420 </v>
   </varray>
  </crystal>
  <varray name="positions" >
   <v>       0.48318215       0.71673410       0.50355814 </v>
   <v>       0.50723855       0.58909018       0.52254473 </v>
   <v>       0.49689971       0.51134391       0.42947138 </v>
   <v>       0.49291230       0.39505366       0.45900433 </v>
   <v>       0.52793787       0.36812388       0.58077462 </v>
   <v>       0.53259161       0.55099886       0.63635725 </v>
   <v>       0.47260484       0.54576490       0.31398459 </v>
   <v>       0.56228031       0.75860040       0.56573850 </v>
   <v>       0.50288834       0.73910140       0.40563158 </v>
   <v>       0.35428203       0.73531830       0.52303221 </v>
   <v>       0.40591384       0.30608155       0.31437888 </v>
   <v>       0.48171003       0.23316151       0.43637665 </v>
   <v>       0.51792093       0.27842056       0.60120747 </v>
   <v>       0.55671205       0.61350467       0.70234198 </v>
   <v>       0.46564330       0.30401636       0.39097044 </v>
   <v>       0.54840662       0.43667367       0.66884756 </v>
  </varray>
  <varray name="velocities" >
   <v>       0.00021269       0.00042952      -0.00007543 </v>
   <v>      -0.00003612      -0.00025366       0.00042421 </v>
   <v>      -0.00017604      -0.00054361      -0.00022802 </v>
   <v>       0.00166848       0.00046153      -0.00022688 </v>
   <v>      -0.00174110       0.00030947       0.00010409 </v>
   <v>       0.00024971       0.00083534       0.00019795 </v>
   <v>      -0.00031050      -0.00018561      -0.00056962 </v>
   <v>      -0.00313504      -0.00149388      -0.00103004 </v>
   <v>       0.00086667       0.00018490      -0.00167590 </v>
   <v>      -0.00079129      -0.00108906      -0.00059761 </v>
   <v>       0.00186768       0.00054196       0.00080377 </v>
   <v>       0.00393876       0.00050829      -0.00145043 </v>
   <v>       0.00434207       0.00004471      -0.00076046 </v>
   <v>      -0.00087502       0.00117740      -0.00083074 </v>
   <v>      -0.00073110       0.00041943       0.00091775 </v>
   <v>       0.00055624      -0.00122113       0.00008288 </v>
  </varray>
 </structure>
</modeling>
