Cluster                                 
           1
     7.759100    0.000000    0.000000
     0.000000   11.733400    0.000000
     0.000000    0.000000   11.316800
   C    F    H    N 
     6     1     7     2
Direct configuration=     1
   0.49989944  0.71054978  0.54389096
   0.49991654  0.58270195  0.54607525
   0.49983971  0.51929038  0.44254502
   0.50025261  0.40005278  0.44148651
   0.50153219  0.34771822  0.55357164
   0.50043029  0.51912335  0.65122540
   0.50107820  0.57427454  0.33542706
   0.61391584  0.74380918  0.49751140
   0.38610184  0.74370086  0.49719148
   0.49962981  0.74454896  0.63423204
   0.53342967  0.38329536  0.26396721
   0.54149225  0.25926536  0.33992121
   0.50242704  0.25433858  0.55889225
   0.50020980  0.56400925  0.73605351
   0.49315154  0.33953460  0.33625481
   0.50166326  0.40494543  0.65557122
Direct configuration=     2
   0.49947527  0.71144627  0.54447884
   0.49934508  0.58234481  0.54606092
   0.49996606  0.51936497  0.44248055
   0.49882083  0.40023586  0.44099802
   0.50175043  0.34794776  0.55378828
   0.50183059  0.51826454  0.65094744
   0.50135527  0.57422273  0.33467812
   0.61608531  0.74446798  0.49496491
   0.38952792  0.74229350  0.49710820
   0.49726908  0.74482334  0.63424360
   0.53627271  0.38525112  0.26476354
   0.53869751  0.25713170  0.34201376
   0.50626809  0.25357138  0.55791540
   0.49490921  0.56367712  0.73778357
   0.49322514  0.33927847  0.33645495
   0.50166896  0.40525304  0.65634914
Direct configuration=     3
   0.49918927  0.71230129  0.54503995
   0.49879165  0.58201443  0.54605026
   0.50008161  0.51944330  0.44240270
   0.49740383  0.40040495  0.44054548
   0.50197135  0.34815999  0.55399932
   0.50319336  0.51746600  0.65072739
   0.50163382  0.57416983  0.33393665
   0.61741121  0.74491216  0.49293521
   0.39195312  0.74120956  0.49665990
   0.49501995  0.74521341  0.63441361
   0.53889272  0.38675495  0.26584166
   0.53572066  0.25547114  0.34394849
   0.51003065  0.25313809  0.55699397
   0.48980072  0.56312915  0.73894993
   0.49332640  0.33901965  0.33663139
   0.50168208  0.40552340  0.65710149
Direct configuration=     4
   0.49912875  0.71307870  0.54555706
   0.49827249  0.58173216  0.54604459
   0.50017649  0.51953029  0.44229861
   0.49601233  0.40054942  0.44016239
   0.50219908  0.34834630  0.55419733
   0.50448282  0.51678014  0.65060530
   0.50191407  0.57411430  0.33320807
   0.61742573  0.74503019  0.49177104
   0.39265260  0.74066441  0.49556604
   0.49295973  0.74579659  0.63485318
   0.54117226  0.38750353  0.26733920
   0.53252181  0.25458487  0.34560561
   0.51363314  0.25323262  0.55617867
   0.48510296  0.56225413  0.73919578
   0.49346597  0.33875946  0.33677255
   0.50171034  0.40571862  0.65780823
Direct configuration=     5
   0.49929747  0.71375992  0.54601280
   0.49780103  0.58151469  0.54604590
   0.50024291  0.51962986  0.44215679
   0.49465224  0.40066292  0.43987541
   0.50243603  0.34850647  0.55437545
   0.50566780  0.51624617  0.65059945
   0.50219745  0.57405399  0.33249638
   0.61602152  0.74481207  0.49164490
   0.39159037  0.74067637  0.49384757
   0.49113323  0.74660098  0.63555968
   0.54311234  0.38737054  0.26917876
   0.52917245  0.25451392  0.34690514
   0.51700864  0.25390961  0.55551721
   0.48101050  0.56105162  0.73839845
   0.49363878  0.33850432  0.33688205
   0.50176119  0.40580498  0.65845368
Direct configuration=     6
   0.49961732  0.71434120  0.54638786
   0.49738971  0.58137372  0.54605515
   0.50027315  0.51974464  0.44196852
   0.49332821  0.40074197  0.43970640
   0.50268329  0.34865115  0.55452856
   0.50672155  0.51588806  0.65070625
   0.50248585  0.57398718  0.33180407
   0.61343114  0.74433698  0.49255097
   0.38939880  0.74108982  0.49184986
   0.48956428  0.74759876  0.63640457
   0.54485309  0.38641511  0.27107799
   0.52583323  0.25502782  0.34781561
   0.52011374  0.25507530  0.55505018
   0.47766151  0.55963000  0.73667074
   0.49382408  0.33826600  0.33697713
   0.50184202  0.40575600  0.65902555
Direct configuration=     7
   0.49996131  0.71482356  0.54667501
   0.49704845  0.58131651  0.54607295
   0.50026055  0.51987611  0.44172801
   0.49204403  0.40078755  0.43966910
   0.50294003  0.34879947  0.55465385
   0.50762618  0.51571022  0.65090121
   0.50278105  0.57391219  0.33113285
   0.61024256  0.74377497  0.49428839
   0.38697218  0.74168918  0.49005461
   0.48826747  0.74871745  0.63717485
   0.54666427  0.38485484  0.27260667
   0.52270850  0.25567108  0.34835825
   0.52293543  0.25650185  0.55480657
   0.47510247  0.55820484  0.73436028
   0.49398823  0.33806038  0.33708476
   0.50195988  0.40555493  0.65951428
Direct configuration=     8
   0.50018209  0.71520217  0.54689121
   0.49678600  0.58134739  0.54609840
   0.50019924  0.52002491  0.44143268
   0.49080481  0.40080316  0.43976983
   0.50320315  0.34897468  0.55475035
   0.50837396  0.51569749  0.65114057
   0.50308453  0.57382780  0.33048355
   0.60740115  0.74338559  0.49645500
   0.38509173  0.74229169  0.48888127
   0.48725234  0.74986415  0.63764685
   0.54887160  0.38297544  0.27332030
   0.51997717  0.25590591  0.34859624
   0.52549405  0.25787361  0.55479982
   0.47326352  0.55708547  0.73202732
   0.49409438  0.33790349  0.33723331
   0.50212191  0.40519690  0.65991276
Direct configuration=     9
   0.50013930  0.71546313  0.54707002
   0.49661010  0.58146827  0.54612940
   0.50008167  0.52019059  0.44108350
   0.48961710  0.40079719  0.44000592
   0.50346833  0.34919645  0.55481975
   0.50896726  0.51581944  0.65137021
   0.50339919  0.57373170  0.32985674
   0.60603854  0.74347346  0.49853585
   0.38427128  0.74278203  0.48859553
   0.48651792  0.75095113  0.63766076
   0.55169539  0.38097756  0.27297060
   0.51771409  0.25536242  0.34860217
   0.52783045  0.25887721  0.55502515
   0.47197396  0.55662037  0.73033928
   0.49411859  0.33780549  0.33744016
   0.50233519  0.40468998  0.66021674
Direct configuration=    10
   0.49974343  0.71559462  0.54724014
   0.49652725  0.58167889  0.54616250
   0.49990088  0.52037253  0.44068410
   0.48848923  0.40078062  0.44036713
   0.50373279  0.34947276  0.55486525
   0.50941024  0.51604149  0.65154711
   0.50372775  0.57362137  0.32925218
   0.60698669  0.74425839  0.50014669
   0.38473773  0.74311247  0.48929348
   0.48604487  0.75191414  0.63717200
   0.55508359  0.37885978  0.27167465
   0.51585248  0.25405594  0.34842445
   0.52997332  0.25930990  0.55545915
   0.47106507  0.55707448  0.72983194
   0.49406360  0.33776222  0.33770095
   0.50260640  0.40405288  0.66042442
Direct configuration=    11
   0.49900252  0.71559711  0.54740086
   0.49654329  0.58197664  0.54619361
   0.49964899  0.52057091  0.44023921
   0.48743211  0.40076614  0.44083649
   0.50399741  0.34979210  0.55489279
   0.50969560  0.51633925  0.65166098
   0.50407294  0.57349428  0.32867009
   0.61021663  0.74572526  0.50128518
   0.38642375  0.74330347  0.49089711
   0.48579360  0.75272198  0.63627465
   0.55869707  0.37646151  0.26988819
   0.51422397  0.25238229  0.34808834
   0.53190551  0.25916072  0.55606036
   0.47052335  0.55848720  0.73063710
   0.49395795  0.33775344  0.33799102
   0.50294239  0.40331385  0.66053670
Direct configuration=    12
   0.49803048  0.71548300  0.54752858
   0.49666157  0.58235707  0.54621915
   0.49931847  0.52078541  0.43975634
   0.48645989  0.40076612  0.44139009
   0.50426940  0.35012411  0.55490991
   0.50980011  0.51670357  0.65173910
   0.50443603  0.57334870  0.32811068
   0.61480648  0.74761114  0.50229710
   0.38891945  0.74345608  0.49312883
   0.48571040  0.75337595  0.63519104
   0.56206076  0.37361492  0.26820485
   0.51263675  0.25089613  0.34762624
   0.53354803  0.25861149  0.55676874
   0.47054759  0.56062896  0.73241075
   0.49383960  0.33774869  0.33827709
   0.50334901  0.40250975  0.66055753
Direct configuration=    13
   0.49700211  0.71526467  0.54760454
   0.49688308  0.58281359  0.54623552
   0.49890283  0.52101482  0.43924600
   0.48558902  0.40079386  0.44199882
   0.50455656  0.35042563  0.55492413
   0.50969459  0.51713577  0.65182820
   0.50481926  0.57318229  0.32757558
   0.61947931  0.74954846  0.50360254
   0.39143269  0.74376979  0.49549313
   0.48574035  0.75389636  0.63422047
   0.56475291  0.37026451  0.26713984
   0.51093085  0.25006260  0.34710259
   0.53478105  0.25795543  0.55750846
   0.47144287  0.56310540  0.73453695
   0.49373971  0.33771685  0.33853024
   0.50383105  0.40168387  0.66049420
Direct configuration=    14
   0.49610077  0.71494744  0.54763439
   0.49720663  0.58333645  0.54623824
   0.49839690  0.52125672  0.43872119
   0.48483529  0.40086368  0.44262895
   0.50486730  0.35065398  0.55494295
   0.50935524  0.51763613  0.65197247
   0.50522446  0.57299226  0.32706628
   0.62311852  0.75120744  0.50549118
   0.39291799  0.74452187  0.49735348
   0.48583605  0.75429463  0.63364986
   0.56653701  0.36650705  0.26699541
   0.50899310  0.25010392  0.34662023
   0.53548260  0.25748530  0.55819593
   0.47347210  0.56550672  0.73639991
   0.49367258  0.33763425  0.33873539
   0.50439229  0.40088220  0.66035753
Direct configuration=    15
   0.49546428  0.71453725  0.54763854
   0.49762660  0.58391318  0.54622305
   0.49779673  0.52150877  0.43819715
   0.48421357  0.40098875  0.44324337
   0.50520731  0.35077436  0.55497241
   0.50877078  0.51820044  0.65219978
   0.50565267  0.57277585  0.32658387
   0.62496688  0.75235286  0.50807956
   0.39254190  0.74595027  0.49818731
   0.48595305  0.75453886  0.63366103
   0.56743845  0.36257595  0.26779510
   0.50674792  0.25093082  0.34631567
   0.53556304  0.25740440  0.55874996
   0.47678091  0.56750215  0.73754364
   0.49363141  0.33749020  0.33889619
   0.50503648  0.40014985  0.66016112
Direct configuration=    16
   0.49513442  0.71405982  0.54762883
   0.49813513  0.58452773  0.54618572
   0.49709905  0.52176828  0.43768967
   0.48373678  0.40117952  0.44380498
   0.50557784  0.35076522  0.55501557
   0.50794348  0.51881818  0.65251684
   0.50610408  0.57253007  0.32612937
   0.62464693  0.75284992  0.51133620
   0.39027514  0.74806653  0.49789461
   0.48603498  0.75453314  0.63427465
   0.56778983  0.35881121  0.26925767
   0.50414105  0.25212896  0.34635266
   0.53498416  0.25777588  0.55909997
   0.48138604  0.56887596  0.73772649
   0.49358647  0.33729026  0.33903736
   0.50576745  0.39952969  0.65992088
Direct configuration=    17
   0.49505032  0.71356494  0.54760422
   0.49871962  0.58515740  0.54612318
   0.49630375  0.52203189  0.43721612
   0.48341802  0.40144494  0.44427910
   0.50597365  0.35062205  0.55507134
   0.50688692  0.51947037  0.65290693
   0.50657988  0.57225280  0.32570292
   0.62217603  0.75267206  0.51509893
   0.38696175  0.75059219  0.49682873
   0.48599680  0.75412699  0.63535985
   0.56820857  0.35559832  0.27084082
   0.50111871  0.25304205  0.34690596
   0.53376836  0.25849675  0.55919252
   0.48718522  0.56954698  0.73694562
   0.49348788  0.33705451  0.33920128
   0.50658815  0.39906171  0.65965384
Direct configuration=    18
   0.49508593  0.71310720  0.54756725
   0.49936380  0.58577405  0.54603246
   0.49541294  0.52229679  0.43679511
   0.48326886  0.40178996  0.44463512
   0.50638355  0.35035926  0.55513514
   0.50562728  0.52012825  0.65332657
   0.50708066  0.57194190  0.32530521
   0.61806130  0.75193937  0.51907164
   0.38379013  0.75309774  0.49553150
   0.48572126  0.75315260  0.63669647
   0.56939386  0.35325839  0.27195623
   0.49760783  0.25304460  0.34812194
   0.53199804  0.25929699  0.55899693
   0.49398014  0.56959471  0.73547180
   0.49328180  0.33680643  0.33943414
   0.50750000  0.39878250  0.65937736
Direct configuration=    19
   0.49507998  0.71272424  0.54753792
   0.50004816  0.58634578  0.54591165
   0.49443297  0.52256045  0.43644584
   0.48329938  0.40221362  0.44484869
   0.50678972  0.35000967  0.55519952
   0.50419785  0.52075030  0.65370602
   0.50760611  0.57159630  0.32493724
   0.61343626  0.75097818  0.52282720
   0.38178454  0.75517333  0.49448463
   0.48507022  0.75146929  0.63805387
   0.57171739  0.35191932  0.27234616
   0.49353317  0.25194343  0.35005621
   0.52979777  0.25978477  0.55850811
   0.50153619  0.56927438  0.73385976
   0.49293877  0.33655257  0.33976181
   0.50850300  0.39872297  0.65910708
Direct configuration=    20
   0.49485493  0.71242449  0.54755097
   0.50074526  0.58683947  0.54575750
   0.49337303  0.52282176  0.43618518
   0.48351895  0.40270942  0.44490633
   0.50717298  0.34961418  0.55525708
   0.50263411  0.52128708  0.65396284
   0.50815505  0.57121573  0.32460052
   0.61001726  0.75032439  0.52587081
   0.38160866  0.75651438  0.49401292
   0.48390584  0.74899977  0.63925242
   0.57493335  0.35147438  0.27229766
   0.48889050  0.25015283  0.35262743
   0.52729399  0.25957044  0.55774239
   0.50968014  0.56895451  0.73282310
   0.49246931  0.33627321  0.34017626
   0.50959526  0.39890676  0.65885429
Direct configuration=    21
   0.49426731  0.71219869  0.54763972
   0.50142717  0.58722638  0.54556589
   0.49224661  0.52308124  0.43602716
   0.48393404  0.40326147  0.44480475
   0.50751714  0.34920812  0.55530082
   0.50096548  0.52170021  0.65403214
   0.50872560  0.57080036  0.32429595
   0.60944188  0.75051407  0.52782671
   0.38354572  0.75694428  0.49427341
   0.48211583  0.74574819  0.64019579
   0.57833804  0.35166097  0.27244056
   0.48380458  0.24843838  0.35563532
   0.52456808  0.25844893  0.55673324
   0.51834764  0.56891643  0.73288738
   0.49190885  0.33593475  0.34065004
   0.51077340  0.39934830  0.65862451
Direct configuration=    22
   0.49330626  0.71205023  0.54781948
   0.50206332  0.58748067  0.54533021
   0.49107032  0.52333993  0.43598099
   0.48454719  0.40384607  0.44455058
   0.50781048  0.34880930  0.55532633
   0.49922963  0.52198330  0.65390115
   0.50931538  0.57035049  0.32402479
   0.61209744  0.75168470  0.52864997
   0.38747246  0.75643414  0.49524070
   0.47963659  0.74181048  0.64087864
   0.58115714  0.35216963  0.27338013
   0.47851673  0.24752424  0.35882040
   0.52164399  0.25653468  0.55553061
   0.52745330  0.56913360  0.73400789
   0.49129195  0.33551100  0.34115756
   0.51203110  0.40005178  0.65841567
Direct configuration=    23
   0.49213044  0.71199890  0.54809128
   0.50262322  0.58758516  0.54504293
   0.48986797  0.52359871  0.43604937
   0.48535222  0.40443151  0.44416014
   0.50804259  0.34841963  0.55533068
   0.49748791  0.52215587  0.65361096
   0.50992101  0.56986868  0.32378891
   0.61680024  0.75345170  0.52862718
   0.39274992  0.75516120  0.49664487
   0.47646998  0.73737910  0.64138439
   0.58282450  0.35271122  0.27546565
   0.47332958  0.24785032  0.36192057
   0.51852739  0.25424076  0.55421030
   0.53667548  0.56928792  0.73557273
   0.49063885  0.33499655  0.34168631
   0.51335534  0.40100848  0.65821913
Direct configuration=    24
   0.49099601  0.71204619  0.54846695
   0.50307553  0.58753533  0.54469609
   0.48866916  0.52385613  0.43622755
   0.48633122  0.40497918  0.44366048
   0.50820369  0.34803845  0.55531136
   0.49583046  0.52224661  0.65322663
   0.51053789  0.56935972  0.32359097
   0.62175214  0.75522894  0.52817723
   0.39810582  0.75359175  0.49788444
   0.47268078  0.73273006  0.64186522
   0.58312952  0.35305293  0.27869653
   0.46853035  0.24946183  0.36471840
   0.51525771  0.25211896  0.55287798
   0.54543205  0.56900400  0.73677998
   0.48995306  0.33441168  0.34223810
   0.51472501  0.40219417  0.65802084
Direct configuration=    25
   0.49016803  0.71215435  0.54898127
   0.50339238  0.58733892  0.54428388
   0.48750662  0.52410906  0.43650282
   0.48745813  0.40545185  0.44308951
   0.50828509  0.34767229  0.55526657
   0.49435408  0.52227838  0.65280412
   0.51115765  0.56883130  0.32343458
   0.62545934  0.75654036  0.52769013
   0.40182174  0.75243622  0.49807887
   0.46837303  0.72817521  0.64248557
   0.58231776  0.35304818  0.28269817
   0.46430220  0.25196371  0.36709461
   0.51192520  0.25066694  0.55165956
   0.55306274  0.56804114  0.73698597
   0.48921955  0.33380126  0.34282784
   0.51611378  0.40357002  0.65780367
Direct configuration=    26
   0.48982473  0.71227783  0.54966346
   0.50354915  0.58701635  0.54380520
   0.48641292  0.52435139  0.43685369
   0.48869967  0.40581525  0.44249244
   0.50828005  0.34734197  0.55519480
   0.49314439  0.52226758  0.65238125
   0.51177241  0.56829009  0.32332215
   0.62699842  0.75710691  0.52747386
   0.40261668  0.75225874  0.49652897
   0.46365982  0.72401035  0.64334201
   0.58113255  0.35265960  0.28676346
   0.46064469  0.25455260  0.36907579
   0.50865328  0.25020245  0.55068315
   0.55901014  0.56634682  0.73583671
   0.48840392  0.33322875  0.34347992
   0.51749522  0.40508740  0.65755001
Direct configuration=    27
   0.48997471  0.71241098  0.55048859
   0.50352787  0.58659430  0.54326298
   0.48541916  0.52457359  0.43725223
   0.49002001  0.40604265  0.44191982
   0.50818462  0.34708273  0.55509560
   0.49226420  0.52222448  0.65197359
   0.51237587  0.56774377  0.32325557
   0.62595998  0.75682005  0.52775245
   0.40067998  0.75297438  0.49337604
   0.45866282  0.72048373  0.64439781
   0.58064301  0.35193615  0.29003013
   0.45738374  0.25622810  0.37081894
   0.50557487  0.25081117  0.55006287
   0.56290635  0.56403820  0.73327060
   0.48746072  0.33276224  0.34421765
   0.51884485  0.40669141  0.65724376
Direct configuration=    28
   0.49048518  0.71258199  0.55138150
   0.50331566  0.58610439  0.54266726
   0.48455301  0.52476141  0.43766588
   0.49138005  0.40611815  0.44142463
   0.50800058  0.34694630  0.55496923
   0.49175198  0.52215587  0.65157397
   0.51296267  0.56719951  0.32323576
   0.62239531  0.75572239  0.52866468
   0.39738953  0.75396167  0.48954762
   0.45353654  0.71779156  0.64547775
   0.58166556  0.35089842  0.29186982
   0.45434946  0.25627845  0.37246895
   0.50281306  0.25232823  0.54988695
   0.56463034  0.56138451  0.72951567
   0.48636111  0.33244781  0.34504517
   0.52013953  0.40831978  0.65687199
Direct configuration=    29
   0.49116652  0.71280804  0.55226854
   0.50290298  0.58558273  0.54203561
   0.48383971  0.52489865  0.43805821
   0.49274160  0.40603376  0.44105820
   0.50773436  0.34699492  0.55481904
   0.49161319  0.52206630  0.65115013
   0.51352812  0.56666351  0.32326350
   0.61689832  0.75403982  0.53023705
   0.39421509  0.75458676  0.48608885
   0.44848494  0.71607380  0.64631706
   0.58408125  0.34942113  0.29226352
   0.45162021  0.25475729  0.37397713
   0.50046047  0.25434527  0.55020868
   0.56439384  0.55881630  0.72513067
   0.48512372  0.33228591  0.34593388
   0.52135799  0.40990414  0.65642593
Direct configuration=    30
   0.49180449  0.71306648  0.55310919
   0.50228693  0.58506868  0.54139061
   0.48330068  0.52496752  0.43839095
   0.49407037  0.40579087  0.44086468
   0.50739842  0.34729305  0.55465140
   0.49180963  0.52195393  0.65064065
   0.51406571  0.56614317  0.32333866
   0.61080512  0.75224888  0.53233813
   0.39216109  0.75446533  0.48375033
   0.44374206  0.71540881  0.64665330
   0.58687220  0.34729454  0.29173522
   0.44953255  0.25240560  0.37511301
   0.49856415  0.25628217  0.55104431
   0.56282955  0.55693058  0.72103973
   0.48381065  0.33223267  0.34683015
   0.52248254  0.41137290  0.65590334
Direct configuration=    31
   0.49215627  0.71329498  0.55389478
   0.50147184  0.58460394  0.54075687
   0.48295155  0.52495101  0.43862962
   0.49533535  0.40540000  0.44087591
   0.50700598  0.34789293  0.55447202
   0.49227069  0.52181274  0.64996122
   0.51457112  0.56564451  0.32345960
   0.60624872  0.75108642  0.53466854
   0.39175425  0.75346136  0.48292915
   0.43952290  0.71580594  0.64632014
   0.58880708  0.34439999  0.29093657
   0.44844010  0.25013019  0.37565114
   0.49713020  0.25757916  0.55238269
   0.56087542  0.55640762  0.71839492
   0.48249436  0.33222518  0.34767583
   0.52350361  0.41265602  0.65531357
Direct configuration=    32
   0.49201243  0.71342344  0.55462839
   0.50046332  0.58422594  0.54015931
   0.48280309  0.52483040  0.43874363
   0.49652357  0.40487826  0.44110850
   0.50657652  0.34880387  0.55428924
   0.49293000  0.52164793  0.64905975
   0.51504170  0.56517052  0.32362630
   0.60537875  0.75128432  0.53691271
   0.39316013  0.75160784  0.48373021
   0.43595782  0.71721011  0.64530841
   0.58899101  0.34077864  0.29038311
   0.44854650  0.24861368  0.37550018
   0.49612308  0.25798063  0.55419693
   0.55930814  0.55773703  0.71802502
   0.48122313  0.33220351  0.34841949
   0.52441523  0.41370717  0.65466173
Direct configuration=    33
   0.49133618  0.71342210  0.55529779
   0.49927439  0.58396733  0.53962247
   0.48286000  0.52458929  0.43870835
   0.49762394  0.40425127  0.44156376
   0.50612642  0.34998668  0.55411229
   0.49378773  0.52150088  0.64795835
   0.51547537  0.56472313  0.32383577
   0.60867206  0.75299313  0.53902771
   0.39622730  0.74907909  0.48599758
   0.43305633  0.71951080  0.64380072
   0.58703583  0.33661093  0.29034109
   0.44981915  0.24817531  0.37472418
   0.49554301  0.25767033  0.55643757
   0.55802955  0.56088331  0.71983633
   0.48002338  0.33212251  0.34902367
   0.52521856  0.41449508  0.65395966
Direct configuration=    34
   0.49031871  0.71331557  0.55587558
   0.49792809  0.58385509  0.53916725
   0.48312468  0.52421786  0.43850976
   0.49862195  0.40355307  0.44222115
   0.50566925  0.35135269  0.55395522
   0.49489342  0.52144565  0.64675325
   0.51586959  0.56430464  0.32408471
   0.61440146  0.75559587  0.54124925
   0.40039309  0.74622713  0.48923267
   0.43071412  0.72254892  0.64215948
   0.58308819  0.33219403  0.29080789
   0.45198904  0.24874704  0.37353458
   0.49542008  0.25716214  0.55900094
   0.55622761  0.56525224  0.72285417
   0.47890454  0.33196011  0.34946600
   0.52591571  0.41500584  0.65322986
Direct configuration=    35
   0.48925745  0.71313602  0.55636149
   0.49646039  0.58390530  0.53880931
   0.48359327  0.52371703  0.43814991
   0.49950089  0.40282522  0.44303395
   0.50522249  0.35278755  0.55383871
   0.49628056  0.52155530  0.64556720
   0.51622054  0.56391780  0.32436657
   0.62016305  0.75822327  0.54377990
   0.40453543  0.74363245  0.49245869
   0.42876446  0.72612181  0.64082576
   0.57785892  0.32789853  0.29149088
   0.45457317  0.24985614  0.37227787
   0.49577613  0.25703430  0.56171420
   0.55313056  0.57001632  0.72588278
   0.47785907  0.33172262  0.34974267
   0.52650835  0.41524715  0.65250478
Direct configuration=    36
   0.48843178  0.71289244  0.55680822
   0.49491468  0.58411748  0.53855353
   0.48425740  0.52310014  0.43765096
   0.50024292  0.40211226  0.44392801
   0.50480149  0.35417435  0.55378983
   0.49794146  0.52187209  0.64449768
   0.51652401  0.56356707  0.32467234
   0.62418833  0.76021321  0.54663803
   0.40712753  0.74202384  0.49433267
   0.42707236  0.73000171  0.64012639
   0.57252680  0.32408198  0.29183417
   0.45697216  0.25071173  0.37138384
   0.49659594  0.25769884  0.56436903
   0.54840673  0.57443222  0.72801685
   0.47685709  0.33144412  0.34987498
   0.52699946  0.41525216  0.65182350
Direct configuration=    37
   0.48799875  0.71259161  0.55727924
   0.49333756  0.58447725  0.53839304
   0.48510130  0.52239015  0.43704830
   0.50083820  0.40145529  0.44481626
   0.50441893  0.35541447  0.55383387
   0.49983654  0.52240423  0.64360524
   0.51677767  0.56325270  0.32499263
   0.62558531  0.76120225  0.54971167
   0.40711453  0.74192670  0.49385275
   0.42561321  0.73394778  0.64011067
   0.56831342  0.32099900  0.29123328
   0.45867334  0.25056676  0.37123061
   0.49782703  0.25930306  0.56676835
   0.54211896  0.57797532  0.72875999
   0.47585535  0.33116527  0.34990075
   0.52739526  0.41507668  0.65122484
Direct configuration=    38
   0.48792650  0.71227870  0.55777130
   0.49176734  0.58495476  0.53830827
   0.48610565  0.52161652  0.43638812
   0.50128246  0.40088939  0.44561094
   0.50408567  0.35643807  0.55399145
   0.50191098  0.52313097  0.64291599
   0.51698218  0.56297387  0.32531728
   0.62415469  0.76106067  0.55283547
   0.40492813  0.74327250  0.49122669
   0.42446372  0.73770174  0.64055878
   0.56583089  0.31879766  0.28942126
   0.45944350  0.24921621  0.37197991
   0.49938846  0.26171747  0.56875846
   0.53457878  0.58034138  0.72796168
   0.47483035  0.33089525  0.34985347
   0.52770512  0.41478955  0.65074614
Direct configuration=    39
   0.48805179  0.71202661  0.55821923
   0.49023334  0.58551118  0.53827570
   0.48724731  0.52080900  0.43571949
   0.50158961  0.40043842  0.44623250
   0.50381807  0.35720573  0.55427022
   0.50409110  0.52400867  0.64244366
   0.51713989  0.56272961  0.32563504
   0.62022704  0.75984447  0.55582286
   0.40209766  0.74550343  0.48763674
   0.42372782  0.74099342  0.64111314
   0.56476376  0.31757868  0.28674343
   0.45940066  0.24717512  0.37350336
   0.50111580  0.26456083  0.57025010
   0.52632927  0.58142649  0.72574415
   0.47379398  0.33059564  0.34974186
   0.52793276  0.41447231  0.65041444
Direct configuration=    40
   0.48818065  0.71189550  0.55855782
   0.48876951  0.58610115  0.53826852
   0.48849707  0.52000528  0.43509567
   0.50176621  0.40011789  0.44661893
   0.50362439  0.35771453  0.55466429
   0.50629904  0.52497629  0.64216023
   0.51725416  0.56251945  0.32593331
   0.61466789  0.75780191  0.55849117
   0.40005815  0.74801479  0.48430245
   0.42344725  0.74358129  0.64144241
   0.56427068  0.31738879  0.28388750
   0.45880184  0.24525873  0.37547454
   0.50287871  0.26722618  0.57123114
   0.51794267  0.58135154  0.72255004
   0.47279311  0.33021067  0.34956343
   0.52808605  0.41419378  0.65025787
Direct configuration=    41
   0.48813282  0.71190527  0.55874985
   0.48740826  0.58667998  0.53826189
   0.48982253  0.51924235  0.43456256
   0.50182063  0.39992909  0.44673803
   0.50350841  0.35798936  0.55514751
   0.50845703  0.52596125  0.64200639
   0.51732946  0.56234296  0.32620032
   0.60892491  0.75540248  0.56069313
   0.39963501  0.75037713  0.48200365
   0.42355487  0.74530467  0.64135183
   0.56354656  0.31817874  0.28152391
   0.45792644  0.24413498  0.37752355
   0.50457483  0.26903982  0.57175538
   0.50995357  0.58050125  0.71914757
   0.47187069  0.32970135  0.34931755
   0.52817601  0.41400798  0.65029642
Direct configuration=    42
   0.48774508  0.71203534  0.55877737
   0.48617518  0.58720935  0.53823832
   0.49119451  0.51854996  0.43415370
   0.50176061  0.39985910  0.44658766
   0.50347129  0.35806829  0.55568513
   0.51050479  0.52688669  0.64189775
   0.51737094  0.56219880  0.32642658
   0.60488202  0.75328268  0.56236098
   0.40111326  0.75235478  0.48108435
   0.42388262  0.74610926  0.64081418
   0.56211444  0.31980208  0.28005803
   0.45699795  0.24411008  0.37934845
   0.50614327  0.26949827  0.57190723
   0.50271357  0.57947919  0.71653646
   0.47104981  0.32906024  0.34901382
   0.52821414  0.41395018  0.65053643
Direct configuration=    43
   0.48691286  0.71225046  0.55863216
   0.48509057  0.58765988  0.53818659
   0.49258858  0.51795286  0.43388879
   0.50159242  0.39988402  0.44619127
   0.50351317  0.35797841  0.55624330
   0.51241040  0.52768789  0.64175526
   0.51738287  0.56208573  0.32660539
   0.60414135  0.75197614  0.56352129
   0.40440893  0.75386446  0.48156734
   0.42420031  0.74604505  0.63995414
   0.55986328  0.32204927  0.27957530
   0.45615782  0.24511333  0.38076669
   0.50755272  0.26851376  0.57174674
   0.49630827  0.57887190  0.71560473
   0.47033171  0.32830965  0.34867219
   0.52821055  0.41403538  0.65097035
Direct configuration=    44
   0.48566911  0.71253611  0.55831616
   0.48417022  0.58801174  0.53810030
   0.49398566  0.51746911  0.43377534
   0.50132138  0.39997154  0.44559055
   0.50363474  0.35772558  0.55679631
   0.51415432  0.52834251  0.64155335
   0.51736959  0.56200347  0.32673173
   0.60691793  0.75153021  0.56424147
   0.40916318  0.75495034  0.48321893
   0.42426533  0.74524460  0.63900501
   0.55700523  0.32468549  0.27986604
   0.45546796  0.24674734  0.38173064
   0.50877753  0.26645641  0.57129234
   0.49069808  0.57888533  0.71661370
   0.46970086  0.32749673  0.34831992
   0.52817369  0.41426071  0.65157693
Direct configuration=    45
   0.48419999  0.71289807  0.55785327
   0.48342712  0.58825471  0.53797728
   0.49536615  0.51711516  0.43381100
   0.50095338  0.40008575  0.44484045
   0.50383752  0.35730744  0.55732394
   0.51570876  0.52887293  0.64133281
   0.51733398  0.56195082  0.32680268
   0.61185602  0.75150260  0.56457161
   0.41473664  0.75580322  0.48552929
   0.42387140  0.74389424  0.63825439
   0.55401433  0.32747913  0.28047686
   0.45492572  0.24836036  0.38232454
   0.50978528  0.26395585  0.57055510
   0.48598370  0.57924364  0.71903176
   0.46912936  0.32668715  0.34798891
   0.52810972  0.41460789  0.65232267
Direct configuration=    46
   0.48275073  0.71332931  0.55729544
   0.48287086  0.58838777  0.53782007
   0.49671082  0.51690008  0.43398404
   0.50049519  0.40018909  0.44400516
   0.50412243  0.35673046  0.55781156
   0.51703381  0.52931927  0.64116611
   0.51727918  0.56192778  0.32681793
   0.61707786  0.75136060  0.56455594
   0.42022475  0.75679746  0.48769016
   0.42290339  0.74219394  0.63795324
   0.55147673  0.33023707  0.28083819
   0.45449964  0.24922544  0.38271501
   0.51054789  0.26163865  0.56957599
   0.48243198  0.57948558  0.72194404
   0.46858436  0.32595164  0.34770954
   0.52802301  0.41504854  0.65316408
Direct configuration=    47
   0.48153050  0.71379304  0.55672029
   0.48250304  0.58841963  0.53763241
   0.49800347  0.51682539  0.43427518
   0.49995535  0.40024912  0.44314807
   0.50448836  0.35601803  0.55824981
   0.51809515  0.52971545  0.64111572
   0.51720740  0.56193383  0.32677993
   0.62112399  0.75076148  0.56426065
   0.42466208  0.75843583  0.48874956
   0.42137740  0.74030733  0.63820536
   0.54979457  0.33282066  0.28051590
   0.45419327  0.24886743  0.38302065
   0.51105613  0.25995048  0.56843528