   16   16   10    1
  0.6430058E+02  0.7757600E-09  0.1170620E-08  0.1132900E-08  0.2000000E-15
  1.000000000000000E-004
  CAR 
 QM9                                     
     48      1     36
 
  0.0000000E+00  0.0000000E+00  0.0000000E+00  0.1000000E+01
      1        -29.927038   1.000000
      2        -23.412359   1.000000
      3        -21.595355   1.000000
      4        -19.679991   1.000000
      5        -17.655111   1.000000
      6        -17.018385   1.000000
      7        -14.891659   1.000000
      8        -14.523138   1.000000
      9        -12.938222   1.000000
     10        -12.161512   1.000000
     11        -11.932307   1.000000
     12        -11.001661   1.000000
     13        -10.738217   1.000000
     14        -10.348241   1.000000
     15         -9.483840   1.000000
     16         -9.391489   1.000000
     17         -9.087456   1.000000
     18         -9.018199   1.000000
     19         -8.661465   1.000000
     20         -8.100671   1.000000
     21         -7.101913   1.000000
     22         -5.896207   1.000000
     23         -5.379022   1.000000
     24         -4.597265   1.000000
     25         -0.800074   0.000000
     26         -0.311436   0.000000
     27         -0.190878   0.000000
     28          0.528619   0.000000
     29          0.632890   0.000000
     30          0.827941   0.000000
     31          1.130659   0.000000
     32          1.631075   0.000000
     33          1.801253   0.000000
     34          1.950178   0.000000
     35          2.010732   0.000000
     36          2.293009   0.000000
