       N       E                     dE             d eps       ncg     rms          rms(c)
RMM:   1     0.794587725927E+03    0.79459E+03   -0.10920E+04    36   0.788E+02
RMM:   2     0.401149279660E+03   -0.39344E+03   -0.44112E+03    36   0.178E+02
RMM:   3     0.237853458843E+03   -0.16330E+03   -0.25727E+03    36   0.141E+02
RMM:   4     0.759873609159E+02   -0.16187E+03   -0.16811E+03    36   0.138E+02
RMM:   5    -0.141425946799E+02   -0.90130E+02   -0.80657E+02    36   0.111E+02
RMM:   6    -0.722395283912E+02   -0.58097E+02   -0.44338E+02    36   0.790E+01
RMM:   7    -0.988847531559E+02   -0.26645E+02   -0.21358E+02    36   0.527E+01
RMM:   8    -0.107088104262E+03   -0.82034E+01   -0.67117E+01    36   0.305E+01
RMM:   9    -0.109365093858E+03   -0.22770E+01   -0.20938E+01    36   0.164E+01
RMM:  10    -0.110076153072E+03   -0.71106E+00   -0.64472E+00    36   0.941E+00
RMM:  11    -0.110298958136E+03   -0.22281E+00   -0.21553E+00    36   0.520E+00
RMM:  12    -0.110380650858E+03   -0.81693E-01   -0.76180E-01    36   0.305E+00
RMM:  13    -0.110410127731E+03   -0.29477E-01   -0.29076E-01    36   0.185E+00
RMM:  14    -0.110422518917E+03   -0.12391E-01   -0.11403E-01    36   0.114E+00
RMM:  15    -0.110429747323E+03   -0.72284E-02   -0.71695E-02    79   0.715E-01
RMM:  16    -0.110430672687E+03   -0.92536E-03   -0.91870E-03    80   0.266E-01
RMM:  17    -0.110430837974E+03   -0.16529E-03   -0.15233E-03    73   0.932E-02
RMM:  18    -0.110430848535E+03   -0.10561E-04   -0.90044E-05    60   0.299E-02
RMM:  19    -0.110430849309E+03   -0.77429E-06   -0.72596E-06    49   0.116E-02
RMM:  20    -0.110430849520E+03   -0.21063E-06   -0.20883E-06    47   0.670E-03    0.172E+01
RMM:  21    -0.102570893549E+03    0.78600E+01   -0.14840E+01   120   0.140E+01    0.925E+00
RMM:  22    -0.100866025397E+03    0.17049E+01   -0.25481E+00   120   0.557E+00    0.421E+00
RMM:  23    -0.100557624066E+03    0.30840E+00   -0.47591E-01   120   0.251E+00    0.107E+00
RMM:  24    -0.100526471320E+03    0.31153E-01   -0.26501E-02   117   0.746E-01    0.314E-01
RMM:  25    -0.100520043152E+03    0.64282E-02   -0.36033E-03    95   0.228E-01    0.190E-01
RMM:  26    -0.100519166913E+03    0.87624E-03   -0.10119E-02   105   0.312E-01    0.952E-02
RMM:  27    -0.100523894099E+03   -0.47272E-02   -0.22819E-03    86   0.156E-01    0.590E-02
RMM:  28    -0.100530777822E+03   -0.68837E-02   -0.92848E-04    79   0.101E-01    0.295E-02
RMM:  29    -0.100535212359E+03   -0.44345E-02   -0.45521E-04    73   0.714E-02    0.207E-02
RMM:  30    -0.100538279877E+03   -0.30675E-02   -0.48588E-04    74   0.652E-02    0.114E-02
RMM:  31    -0.100538970847E+03   -0.69097E-03   -0.10797E-04    63   0.323E-02    0.569E-03
RMM:  32    -0.100539223134E+03   -0.25229E-03   -0.62296E-05    60   0.195E-02    0.285E-03
RMM:  33    -0.100539280627E+03   -0.57493E-04   -0.11624E-05    49   0.940E-03    0.150E-03
RMM:  34    -0.100539337929E+03   -0.57302E-04   -0.10688E-05    43   0.772E-03    0.682E-04
RMM:  35    -0.100539347985E+03   -0.10056E-04   -0.25357E-06    36   0.473E-03    0.316E-04
RMM:  36    -0.100539351686E+03   -0.37012E-05   -0.10419E-06    32   0.375E-03
   1 F= -.10053935E+03 E0= -.10053935E+03  d E =-.100539E+03
       N       E                     dE             d eps       ncg     rms          rms(c)
RMM:   1    -0.100541301814E+03   -0.19538E-02   -0.39006E+00    72   0.103E+01    0.443E-01
RMM:   2    -0.100553103792E+03   -0.11802E-01   -0.17181E-01    72   0.282E+00    0.233E-01
RMM:   3    -0.100554793222E+03   -0.16894E-02   -0.23449E-02    73   0.926E-01    0.165E-01
RMM:   4    -0.100554372629E+03    0.42059E-03   -0.38054E-03    74   0.347E-01    0.676E-02
RMM:   5    -0.100554352650E+03    0.19979E-04   -0.11003E-03    74   0.162E-01    0.302E-02
RMM:   6    -0.100554411425E+03   -0.58774E-04   -0.35795E-04    74   0.894E-02    0.180E-02
RMM:   7    -0.100554441879E+03   -0.30454E-04   -0.74171E-05    67   0.387E-02    0.995E-03
RMM:   8    -0.100554511978E+03   -0.70099E-04   -0.54094E-05    65   0.292E-02    0.100E-02
RMM:   9    -0.100554559349E+03   -0.47370E-04   -0.11482E-05    48   0.143E-02    0.410E-03
RMM:  10    -0.100554626493E+03   -0.67144E-04   -0.12700E-05    49   0.134E-02    0.272E-03
RMM:  11    -0.100554661395E+03   -0.34901E-04   -0.68113E-06    46   0.794E-03    0.103E-03
RMM:  12    -0.100554674685E+03   -0.13290E-04   -0.27528E-06    40   0.485E-03    0.603E-04
RMM:  13    -0.100554684548E+03   -0.98631E-05   -0.20716E-06    35   0.423E-03
   2 F= -.10055468E+03 E0= -.10055468E+03  d E =-.153329E-01
       N       E                     dE             d eps       ncg     rms          rms(c)
RMM:   1    -0.100555177492E+03   -0.50281E-03   -0.18169E-01    72   0.222E+00    0.899E-02
RMM:   2    -0.100555785262E+03   -0.60777E-03   -0.79625E-03    72   0.612E-01    0.503E-02
RMM:   3    -0.100555870285E+03   -0.85024E-04   -0.10965E-03    73   0.202E-01    0.336E-02
RMM:   4    -0.100555856440E+03    0.13845E-04   -0.17458E-04    73   0.752E-02    0.122E-02
RMM:   5    -0.100555853424E+03    0.30163E-05   -0.48494E-05    62   0.351E-02    0.536E-03
RMM:   6    -0.100555854178E+03   -0.75411E-06   -0.12579E-05    49   0.167E-02
   3 F= -.10055585E+03 E0= -.10055585E+03  d E =-.165025E-01
       N       E                     dE             d eps       ncg     rms          rms(c)
RMM:   1    -0.100558282907E+03   -0.24295E-02   -0.46529E-01    72   0.378E+00    0.165E-01
RMM:   2    -0.100559853534E+03   -0.15706E-02   -0.20421E-02    72   0.952E-01    0.897E-02
RMM:   3    -0.100560073734E+03   -0.22020E-03   -0.29875E-03    73   0.314E-01    0.698E-02
RMM:   4    -0.100560027107E+03    0.46627E-04   -0.48051E-04    73   0.122E-01    0.291E-02
RMM:   5    -0.100560043614E+03   -0.16507E-04   -0.16234E-04    72   0.634E-02    0.150E-02
RMM:   6    -0.100560049958E+03   -0.63435E-05   -0.54326E-05    66   0.357E-02
   4 F= -.10056005E+03 E0= -.10056005E+03  d E =-.419578E-02
       N       E                     dE             d eps       ncg     rms          rms(c)
RMM:   1    -0.100560154377E+03   -0.11076E-03   -0.40612E-02    72   0.112E+00    0.486E-02
RMM:   2    -0.100560291093E+03   -0.13672E-03   -0.17962E-03    72   0.282E-01    0.271E-02
RMM:   3    -0.100560314218E+03   -0.23125E-04   -0.27331E-04    73   0.954E-02    0.210E-02
RMM:   4    -0.100560312572E+03    0.16462E-05   -0.45398E-05    67   0.377E-02    0.861E-03
RMM:   5    -0.100560315138E+03   -0.25663E-05   -0.15702E-05    48   0.195E-02    0.493E-03
RMM:   6    -0.100560317135E+03   -0.19973E-05   -0.51781E-06    48   0.105E-02
   5 F= -.10056032E+03 E0= -.10056032E+03  d E =-.446296E-02
       N       E                     dE             d eps       ncg     rms          rms(c)
RMM:   1    -0.100561182544E+03   -0.86741E-03   -0.21155E-01    72   0.252E+00    0.114E-01
RMM:   2    -0.100561872849E+03   -0.69030E-03   -0.92205E-03    72   0.603E-01    0.665E-02
RMM:   3    -0.100561943833E+03   -0.70984E-04   -0.13741E-03    72   0.204E-01    0.499E-02
RMM:   4    -0.100561917368E+03    0.26465E-04   -0.25188E-04    72   0.866E-02    0.197E-02
RMM:   5    -0.100561921911E+03   -0.45428E-05   -0.10365E-04    72   0.471E-02    0.113E-02
RMM:   6    -0.100561925377E+03   -0.34663E-05   -0.27239E-05    53   0.236E-02
   6 F= -.10056193E+03 E0= -.10056193E+03  d E =-.160824E-02
       N       E                     dE             d eps       ncg     rms          rms(c)
RMM:   1    -0.100561925752E+03   -0.38408E-05   -0.18196E-04    71   0.705E-02    0.476E-03
RMM:   2    -0.100561928214E+03   -0.24622E-05   -0.79909E-06    48   0.179E-02    0.291E-03
RMM:   3    -0.100561931154E+03   -0.29400E-05   -0.90008E-07    47   0.543E-03    0.900E-04
RMM:   4    -0.100561933172E+03   -0.20177E-05   -0.70817E-08    27   0.266E-03    0.383E-04
RMM:   5    -0.100561935505E+03   -0.23336E-05   -0.10563E-07    26   0.285E-03    0.188E-04
RMM:   6    -0.100561937147E+03   -0.16418E-05   -0.29365E-07    29   0.293E-03
   7 F= -.10056194E+03 E0= -.10056194E+03  d E =-.162001E-02
       N       E                     dE             d eps       ncg     rms          rms(c)
RMM:   1    -0.100562358015E+03   -0.42251E-03   -0.40252E-02    72   0.110E+00    0.522E-02
RMM:   2    -0.100562496469E+03   -0.13845E-03   -0.17746E-03    72   0.261E-01    0.278E-02
RMM:   3    -0.100562518491E+03   -0.22022E-04   -0.31758E-04    72   0.893E-02    0.210E-02
RMM:   4    -0.100562516405E+03    0.20861E-05   -0.50673E-05    65   0.365E-02    0.901E-03
RMM:   5    -0.100562517409E+03   -0.10042E-05   -0.13507E-05    49   0.184E-02    0.501E-03
RMM:   6    -0.100562518295E+03   -0.88581E-06   -0.30085E-06    47   0.800E-03
   8 F= -.10056252E+03 E0= -.10056252E+03  d E =-.581148E-03
       N       E                     dE             d eps       ncg     rms          rms(c)
RMM:   1    -0.100562533048E+03   -0.15639E-04   -0.22311E-03    72   0.261E-01    0.122E-02
RMM:   2    -0.100562540888E+03   -0.78404E-05   -0.10189E-04    71   0.623E-02    0.643E-03
RMM:   3    -0.100562542375E+03   -0.14870E-05   -0.19521E-05    50   0.220E-02    0.533E-03
RMM:   4    -0.100562542571E+03   -0.19584E-06   -0.30259E-06    47   0.827E-03    0.265E-03
RMM:   5    -0.100562543021E+03   -0.45054E-06   -0.11112E-06    46   0.500E-03    0.841E-04
RMM:   6    -0.100562543239E+03   -0.21717E-06   -0.15154E-07    28   0.266E-03
   9 F= -.10056254E+03 E0= -.10056254E+03  d E =-.606091E-03
       N       E                     dE             d eps       ncg     rms          rms(c)
RMM:   1    -0.100562810620E+03   -0.26760E-03   -0.56220E-02    72   0.122E+00    0.654E-02
RMM:   2    -0.100562987744E+03   -0.17712E-03   -0.24377E-03    72   0.303E-01    0.265E-02
RMM:   3    -0.100563028506E+03   -0.40761E-04   -0.47253E-04    72   0.103E-01    0.230E-02
RMM:   4    -0.100563029101E+03   -0.59583E-06   -0.71393E-05    67   0.404E-02    0.188E-02
RMM:   5    -0.100563028560E+03    0.54164E-06   -0.18001E-05    50   0.195E-02    0.600E-03
RMM:   6    -0.100563028579E+03   -0.19732E-07   -0.42035E-06    47   0.964E-03
  10 F= -.10056303E+03 E0= -.10056303E+03  d E =-.485341E-03
