   16   16  300    1
  0.6432613E+02  0.7753300E-09  0.1181980E-08  0.1123080E-08  0.1000000E-14
   500.000000000000     
  CAR 
 Cluster                                 
     48      1     36
