 running    8 mpi-ranks, with    1 threads/rank, on    1 nodes
 distrk:  each k-point on    8 cores,    1 groups
 distr:  one band on    2 cores,    4 groups
 vasp.6.4.1 05Apr23 (build Jun 16 2023 21:25:53) gamma-only                     
  
 POSCAR found type information on POSCAR C F H O 
 POSCAR found :  4 types and      16 ions
 Reading from existing POTCAR
 scaLAPACK will be used
 Reading from existing POTCAR
 LDA part: xc-table for Pade appr. of Perdew
 POSCAR found type information on POSCAR C F H O 
 POSCAR found :  4 types and      16 ions
 POSCAR, INCAR and KPOINTS ok, starting setup
 FFT: planning ... GRIDC
 FFT: planning ... GRID_SOFT
 FFT: planning ... GRID
 WAVECAR not read
 prediction of wavefunctions initialized - no I/O
 entering main loop
       N       E                     dE             d eps       ncg     rms          rms(c)
RMM:   1     0.796354229556E+03    0.79635E+03   -0.10729E+04    36   0.782E+02
RMM:   2     0.399943833973E+03   -0.39641E+03   -0.45240E+03    36   0.180E+02
RMM:   3     0.256218100900E+03   -0.14373E+03   -0.26221E+03    36   0.137E+02
RMM:   4     0.809275137258E+02   -0.17529E+03   -0.17852E+03    36   0.142E+02
RMM:   5     0.419434491156E+00   -0.80508E+02   -0.76096E+02    36   0.107E+02
RMM:   6    -0.679314841742E+02   -0.68351E+02   -0.56886E+02    36   0.821E+01
RMM:   7    -0.941737664283E+02   -0.26242E+02   -0.23469E+02    36   0.533E+01
RMM:   8    -0.104926187945E+03   -0.10752E+02   -0.81460E+01    36   0.320E+01
RMM:   9    -0.107610851074E+03   -0.26847E+01   -0.25236E+01    36   0.176E+01
RMM:  10    -0.108587534959E+03   -0.97668E+00   -0.87373E+00    36   0.997E+00
RMM:  11    -0.108950326449E+03   -0.36279E+00   -0.33812E+00    36   0.600E+00
RMM:  12    -0.109102956219E+03   -0.15263E+00   -0.13812E+00    36   0.361E+00
RMM:  13    -0.109163412688E+03   -0.60456E-01   -0.57717E-01    36   0.228E+00
RMM:  14    -0.109189954715E+03   -0.26542E-01   -0.24568E-01    36   0.141E+00
RMM:  15    -0.109206756432E+03   -0.16802E-01   -0.16529E-01    77   0.915E-01
RMM:  16    -0.109209111809E+03   -0.23554E-02   -0.22506E-02    76   0.366E-01
RMM:  17    -0.109209566343E+03   -0.45453E-03   -0.44375E-03    79   0.159E-01
RMM:  18    -0.109209579668E+03   -0.13325E-04   -0.13966E-04    64   0.364E-02
RMM:  19    -0.109209580559E+03   -0.89066E-06   -0.84593E-06    47   0.131E-02
RMM:  20    -0.109209580877E+03   -0.31854E-06   -0.31621E-06    44   0.814E-03    0.164E+01
RMM:  21    -0.101644672961E+03    0.75649E+01   -0.13292E+01   120   0.133E+01    0.884E+00
RMM:  22    -0.998772307587E+02    0.17674E+01   -0.29473E+00   120   0.582E+00    0.385E+00
RMM:  23    -0.995963291610E+02    0.28090E+00   -0.39084E-01   120   0.227E+00    0.112E+00
RMM:  24    -0.995623739782E+02    0.33955E-01   -0.24133E-02   104   0.728E-01    0.330E-01
RMM:  25    -0.995559167482E+02    0.64572E-02   -0.41813E-03    86   0.270E-01    0.177E-01
RMM:  26    -0.995556999589E+02    0.21679E-03   -0.10228E-02    95   0.322E-01    0.932E-02
RMM:  27    -0.995603778034E+02   -0.46778E-02   -0.18924E-03    81   0.148E-01    0.502E-02
RMM:  28    -0.995664580220E+02   -0.60802E-02   -0.74176E-04    73   0.962E-02    0.267E-02
RMM:  29    -0.995706830480E+02   -0.42250E-02   -0.51788E-04    70   0.729E-02    0.169E-02
RMM:  30    -0.995731503741E+02   -0.24673E-02   -0.42465E-04    72   0.595E-02    0.930E-03
RMM:  31    -0.995736824090E+02   -0.53203E-03   -0.10088E-04    63   0.311E-02    0.588E-03
RMM:  32    -0.995738485580E+02   -0.16615E-03   -0.33465E-05    58   0.165E-02    0.235E-03
RMM:  33    -0.995739359433E+02   -0.87385E-04   -0.15696E-05    48   0.107E-02    0.158E-03
RMM:  34    -0.995739769948E+02   -0.41052E-04   -0.63842E-06    43   0.703E-03    0.855E-04
RMM:  35    -0.995739925387E+02   -0.15544E-04   -0.29290E-06    38   0.503E-03    0.344E-04
RMM:  36    -0.995739960800E+02   -0.35414E-05   -0.89943E-07    34   0.366E-03
      1 T=   500. E= -.98603671E+02 F= -.99573996E+02 E0= -.99575929E+02  EK= 0.97032E+00 SP= 0.00E+00 SK= 0.00E+00
 bond charge predicted
       N       E                     dE             d eps       ncg     rms          rms(c)
RMM:   1    -0.994565262956E+02    0.11747E+00   -0.57909E+00    72   0.131E+01    0.704E-01
RMM:   2    -0.994801761564E+02   -0.23650E-01   -0.29907E-01    72   0.351E+00    0.466E-01
RMM:   3    -0.994817930424E+02   -0.16169E-02   -0.43571E-02    73   0.120E+00    0.233E-01
RMM:   4    -0.994819652038E+02   -0.17216E-03   -0.81679E-03    75   0.462E-01    0.762E-02
RMM:   5    -0.994821229673E+02   -0.15776E-03   -0.20611E-03    77   0.214E-01    0.366E-02
RMM:   6    -0.994821610083E+02   -0.38041E-04   -0.38483E-04    77   0.909E-02    0.130E-02
RMM:   7    -0.994821913130E+02   -0.30305E-04   -0.63764E-05    62   0.371E-02    0.726E-03
RMM:   8    -0.994822314212E+02   -0.40108E-04   -0.13999E-05    48   0.176E-02    0.349E-03
RMM:   9    -0.994822534264E+02   -0.22005E-04   -0.42500E-06    48   0.968E-03    0.167E-03
RMM:  10    -0.994823027375E+02   -0.49311E-04   -0.62201E-06    48   0.873E-03    0.167E-03
RMM:  11    -0.994823162628E+02   -0.13525E-04   -0.22054E-06    47   0.521E-03    0.101E-03
RMM:  12    -0.994823276178E+02   -0.11355E-04   -0.13254E-06    38   0.389E-03    0.645E-04
RMM:  13    -0.994823360042E+02   -0.83864E-05   -0.11925E-06    37   0.372E-03
      2 T=   456. E= -.98598709E+02 F= -.99482336E+02 E0= -.99484269E+02  EK= 0.88361E+00 SP= 0.22E-04 SK= 0.39E-07
 bond charge predicted
 prediction of wavefunctions
       N       E                     dE             d eps       ncg     rms          rms(c)
RMM:   1    -0.992963659842E+02    0.18596E+00   -0.28701E-01    72   0.312E+00    0.168E-01
RMM:   2    -0.992974818086E+02   -0.11158E-02   -0.14012E-02    72   0.694E-01    0.119E-01
RMM:   3    -0.992975557112E+02   -0.73903E-04   -0.20465E-03    72   0.243E-01    0.507E-02
RMM:   4    -0.992975724216E+02   -0.16710E-04   -0.39110E-04    74   0.919E-02    0.174E-02
RMM:   5    -0.992975817789E+02   -0.93573E-05   -0.10853E-04    66   0.448E-02    0.742E-03
RMM:   6    -0.992975842188E+02   -0.24399E-05   -0.21676E-05    52   0.201E-02
      3 T=   368. E= -.98585418E+02 F= -.99297584E+02 E0= -.99299517E+02  EK= 0.71375E+00 SP= -.19E-02 SK= 0.32E-03
 bond charge predicted
 prediction of wavefunctions
       N       E                     dE             d eps       ncg     rms          rms(c)
RMM:   1    -0.992080963427E+02    0.89485E-01   -0.16698E-01    72   0.285E+00    0.150E-01
RMM:   2    -0.992087914734E+02   -0.69513E-03   -0.69376E-03    72   0.484E-01    0.102E-01
RMM:   3    -0.992089710869E+02   -0.17961E-03   -0.11595E-03    71   0.189E-01    0.402E-02
RMM:   4    -0.992090131429E+02   -0.42056E-04   -0.24963E-04    77   0.765E-02    0.144E-02
RMM:   5    -0.992090202630E+02   -0.71201E-05   -0.36632E-05    57   0.294E-02    0.445E-03
RMM:   6    -0.992090246981E+02   -0.44351E-05   -0.81429E-06    48   0.131E-02
      4 T=   325. E= -.98585380E+02 F= -.99209025E+02 E0= -.99210957E+02  EK= 0.63048E+00 SP= -.96E-02 SK= 0.28E-02
 bond charge predicted
 prediction of wavefunctions
       N       E                     dE             d eps       ncg     rms          rms(c)
RMM:   1    -0.992214038578E+02   -0.12384E-01   -0.38185E-02    72   0.131E+00    0.797E-02
RMM:   2    -0.992215935106E+02   -0.18965E-03   -0.19144E-03    73   0.259E-01    0.544E-02
RMM:   3    -0.992216538748E+02   -0.60364E-04   -0.41923E-04    73   0.108E-01    0.106E-02
RMM:   4    -0.992216642817E+02   -0.10407E-04   -0.95980E-05    71   0.419E-02    0.687E-03
RMM:   5    -0.992216672304E+02   -0.29487E-05   -0.12175E-05    49   0.175E-02    0.311E-03
RMM:   6    -0.992216691497E+02   -0.19193E-05   -0.24566E-06    47   0.759E-03
      5 T=   332. E= -.98595652E+02 F= -.99221669E+02 E0= -.99223602E+02  EK= 0.64320E+00 SP= -.25E-01 SK= 0.80E-02
 bond charge predicted
 prediction of wavefunctions
       N       E                     dE             d eps       ncg     rms          rms(c)
RMM:   1    -0.991896960652E+02    0.31971E-01   -0.67358E-02    72   0.164E+00    0.106E-01
RMM:   2    -0.991899716780E+02   -0.27561E-03   -0.36496E-03    72   0.313E-01    0.726E-02
RMM:   3    -0.991900090555E+02   -0.37377E-04   -0.72837E-04    73   0.126E-01    0.305E-02
RMM:   4    -0.991900249300E+02   -0.15875E-04   -0.16195E-04    75   0.551E-02    0.140E-02
RMM:   5    -0.991900294562E+02   -0.45261E-05   -0.28962E-05    53   0.225E-02    0.532E-03
RMM:   6    -0.991900329480E+02   -0.34918E-05   -0.50566E-06    47   0.101E-02
      6 T=   322. E= -.98598500E+02 F= -.99190033E+02 E0= -.99191966E+02  EK= 0.62470E+00 SP= -.49E-01 SK= 0.15E-01
 bond charge predicted
 prediction of wavefunctions
       N       E                     dE             d eps       ncg     rms          rms(c)
RMM:   1    -0.990671215993E+02    0.12291E+00   -0.84385E-02    72   0.173E+00    0.109E-01
RMM:   2    -0.990674336424E+02   -0.31204E-03   -0.45979E-03    72   0.376E-01    0.704E-02
RMM:   3    -0.990674687179E+02   -0.35076E-04   -0.89251E-04    72   0.143E-01    0.338E-02
RMM:   4    -0.990674787894E+02   -0.10072E-04   -0.18619E-04    76   0.611E-02    0.141E-02
RMM:   5    -0.990674819543E+02   -0.31648E-05   -0.30407E-05    56   0.258E-02    0.518E-03
RMM:   6    -0.990674845916E+02   -0.26374E-05   -0.75646E-06    47   0.122E-02
      7 T=   272. E= -.98593437E+02 F= -.99067485E+02 E0= -.99069417E+02  EK= 0.52681E+00 SP= -.80E-01 SK= 0.28E-01
 bond charge predicted
 prediction of wavefunctions
       N       E                     dE             d eps       ncg     rms          rms(c)
RMM:   1    -0.989347070453E+02    0.13277E+00   -0.10278E-01    72   0.178E+00    0.103E-01
RMM:   2    -0.989350657110E+02   -0.35867E-03   -0.51865E-03    72   0.459E-01    0.624E-02
RMM:   3    -0.989351200407E+02   -0.54330E-04   -0.93734E-04    74   0.166E-01    0.300E-02
RMM:   4    -0.989351271046E+02   -0.70639E-05   -0.16971E-04    73   0.600E-02    0.118E-02
RMM:   5    -0.989351311914E+02   -0.40868E-05   -0.42268E-05    63   0.295E-02    0.446E-03
RMM:   6    -0.989351325749E+02   -0.13835E-05   -0.86977E-06    48   0.144E-02
      8 T=   217. E= -.98587029E+02 F= -.98935133E+02 E0= -.98937065E+02  EK= 0.42171E+00 SP= -.12E+00 SK= 0.49E-01
 bond charge predicted
 prediction of wavefunctions
       N       E                     dE             d eps       ncg     rms          rms(c)
RMM:   1    -0.988953949211E+02    0.39736E-01   -0.83472E-02    72   0.177E+00    0.960E-02
RMM:   2    -0.988957123301E+02   -0.31741E-03   -0.43976E-03    72   0.395E-01    0.665E-02
RMM:   3    -0.988957178032E+02   -0.54731E-05   -0.80015E-04    73   0.145E-01    0.268E-02
RMM:   4    -0.988957309225E+02   -0.13119E-04   -0.16731E-04    74   0.599E-02    0.148E-02
RMM:   5    -0.988957347088E+02   -0.37863E-05   -0.33719E-05    54   0.263E-02    0.537E-03
RMM:   6    -0.988957369357E+02   -0.22269E-05   -0.60931E-06    47   0.122E-02
      9 T=   210. E= -.98584612E+02 F= -.98895737E+02 E0= -.98897670E+02  EK= 0.40775E+00 SP= -.18E+00 SK= 0.82E-01
 bond charge predicted
 prediction of wavefunctions
       N       E                     dE             d eps       ncg     rms          rms(c)
RMM:   1    -0.989784795254E+02   -0.82745E-01   -0.41211E-02    72   0.122E+00    0.912E-02
RMM:   2    -0.989785722207E+02   -0.92695E-04   -0.22740E-03    72   0.284E-01    0.598E-02
RMM:   3    -0.989785699583E+02    0.22623E-05   -0.62696E-04    72   0.121E-01    0.212E-02
RMM:   4    -0.989785746231E+02   -0.46648E-05   -0.92755E-05    71   0.455E-02    0.149E-02
RMM:   5    -0.989785796712E+02   -0.50481E-05   -0.21969E-05    53   0.229E-02    0.455E-03
RMM:   6    -0.989785815185E+02   -0.18473E-05   -0.56138E-06    47   0.112E-02
     10 T=   267. E= -.98588969E+02 F= -.98978582E+02 E0= -.98980514E+02  EK= 0.51849E+00 SP= -.25E+00 SK= 0.12E+00
 bond charge predicted
 prediction of wavefunctions
       N       E                     dE             d eps       ncg     rms          rms(c)
RMM:   1    -0.991040524965E+02   -0.12547E+00   -0.36317E-02    72   0.116E+00    0.801E-02
RMM:   2    -0.991041591376E+02   -0.10664E-03   -0.20708E-03    72   0.269E-01    0.508E-02
RMM:   3    -0.991041814729E+02   -0.22335E-04   -0.48996E-04    73   0.113E-01    0.214E-02
RMM:   4    -0.991041929101E+02   -0.11437E-04   -0.99176E-05    69   0.418E-02    0.121E-02
RMM:   5    -0.991042015759E+02   -0.86658E-05   -0.18952E-05    49   0.202E-02    0.434E-03
RMM:   6    -0.991042066946E+02   -0.51187E-05   -0.55742E-06    47   0.106E-02
     11 T=   353. E= -.98598905E+02 F= -.99104207E+02 E0= -.99106139E+02  EK= 0.68471E+00 SP= -.33E+00 SK= 0.15E+00
 bond charge predicted
 prediction of wavefunctions
       N       E                     dE             d eps       ncg     rms          rms(c)
RMM:   1    -0.991323580447E+02   -0.28156E-01   -0.61757E-02    72   0.157E+00    0.879E-02
RMM:   2    -0.991326340394E+02   -0.27599E-03   -0.36262E-03    72   0.343E-01    0.560E-02
RMM:   3    -0.991326959523E+02   -0.61913E-04   -0.74942E-04    73   0.138E-01    0.308E-02
RMM:   4    -0.991327171419E+02   -0.21190E-04   -0.16470E-04    75   0.592E-02    0.128E-02
RMM:   5    -0.991327269554E+02   -0.98135E-05   -0.31348E-05    57   0.251E-02    0.437E-03
RMM:   6    -0.991327329972E+02   -0.60418E-05   -0.55891E-06    47   0.110E-02
     12 T=   400. E= -.98606112E+02 F= -.99132733E+02 E0= -.99134666E+02  EK= 0.77469E+00 SP= -.41E+00 SK= 0.17E+00
 bond charge predicted
 prediction of wavefunctions
       N       E                     dE             d eps       ncg     rms          rms(c)
RMM:   1    -0.990050772574E+02    0.12765E+00   -0.10798E-01    72   0.196E+00    0.104E-01
RMM:   2    -0.990055652278E+02   -0.48797E-03   -0.60463E-03    72   0.478E-01    0.668E-02
RMM:   3    -0.990056488961E+02   -0.83668E-04   -0.10881E-03    72   0.176E-01    0.359E-02
RMM:   4    -0.990056646312E+02   -0.15735E-04   -0.22078E-04    72   0.715E-02    0.987E-03
RMM:   5    -0.990056729035E+02   -0.82722E-05   -0.70639E-05    68   0.348E-02    0.587E-03
RMM:   6    -0.990056755703E+02   -0.26669E-05   -0.83508E-06    47   0.139E-02
     13 T=   376. E= -.98598585E+02 F= -.99005676E+02 E0= -.99007608E+02  EK= 0.72938E+00 SP= -.50E+00 SK= 0.18E+00
 bond charge predicted
 prediction of wavefunctions
       N       E                     dE             d eps       ncg     rms          rms(c)
RMM:   1    -0.988741757027E+02    0.13150E+00   -0.23709E-01    72   0.284E+00    0.187E-01
RMM:   2    -0.988747975429E+02   -0.62184E-03   -0.11701E-02    72   0.647E-01    0.119E-01
RMM:   3    -0.988749106265E+02   -0.11308E-03   -0.26031E-03    74   0.243E-01    0.467E-02
RMM:   4    -0.988749317581E+02   -0.21132E-04   -0.41421E-04    73   0.978E-02    0.224E-02
RMM:   5    -0.988749434758E+02   -0.11718E-04   -0.11327E-04    73   0.486E-02    0.934E-03
RMM:   6    -0.988749455445E+02   -0.20687E-05   -0.19259E-05    50   0.206E-02
     14 T=   351. E= -.98586160E+02 F= -.98874946E+02 E0= -.98876878E+02  EK= 0.68116E+00 SP= -.60E+00 SK= 0.21E+00
 bond charge predicted
 prediction of wavefunctions
       N       E                     dE             d eps       ncg     rms          rms(c)
RMM:   1    -0.989010604357E+02   -0.26117E-01   -0.10598E-01    72   0.201E+00    0.129E-01
RMM:   2    -0.989015590694E+02   -0.49863E-03   -0.67554E-03    73   0.459E-01    0.835E-02
RMM:   3    -0.989016724309E+02   -0.11336E-03   -0.14513E-03    74   0.184E-01    0.419E-02
RMM:   4    -0.989016962030E+02   -0.23772E-04   -0.26785E-04    72   0.741E-02    0.152E-02
RMM:   5    -0.989017068319E+02   -0.10629E-04   -0.77702E-05    68   0.366E-02    0.605E-03
RMM:   6    -0.989017109088E+02   -0.40770E-05   -0.12505E-05    48   0.165E-02
     15 T=   400. E= -.98595000E+02 F= -.98901711E+02 E0= -.98903644E+02  EK= 0.77561E+00 SP= -.70E+00 SK= 0.23E+00
 bond charge predicted
 prediction of wavefunctions
       N       E                     dE             d eps       ncg     rms          rms(c)
RMM:   1    -0.989595392640E+02   -0.57832E-01   -0.10432E-01    72   0.202E+00    0.128E-01
RMM:   2    -0.989599602035E+02   -0.42094E-03   -0.61277E-03    72   0.441E-01    0.818E-02
RMM:   3    -0.989600715602E+02   -0.11136E-03   -0.14595E-03    72   0.178E-01    0.364E-02
RMM:   4    -0.989600918346E+02   -0.20274E-04   -0.27821E-04    77   0.749E-02    0.156E-02
RMM:   5    -0.989601001155E+02   -0.82809E-05   -0.57620E-05    62   0.326E-02    0.552E-03
RMM:   6    -0.989601031643E+02   -0.30488E-05   -0.14674E-05    48   0.171E-02
     16 T=   474. E= -.98606017E+02 F= -.98960103E+02 E0= -.98962036E+02  EK= 0.91994E+00 SP= -.81E+00 SK= 0.25E+00
 bond charge predicted
 prediction of wavefunctions
       N       E                     dE             d eps       ncg     rms          rms(c)
RMM:   1    -0.989034906059E+02    0.56610E-01   -0.21423E-01    72   0.281E+00    0.194E-01
RMM:   2    -0.989040516910E+02   -0.56109E-03   -0.11102E-02    72   0.575E-01    0.127E-01
RMM:   3    -0.989041029558E+02   -0.51265E-04   -0.23422E-03    71   0.235E-01    0.512E-02
RMM:   4    -0.989041295325E+02   -0.26577E-04   -0.52146E-04    75   0.966E-02    0.287E-02
RMM:   5    -0.989041368187E+02   -0.72862E-05   -0.10582E-04    71   0.447E-02    0.103E-02
RMM:   6    -0.989041396955E+02   -0.28768E-05   -0.31241E-05    55   0.250E-02
     17 T=   503. E= -.98605708E+02 F= -.98904140E+02 E0= -.98906072E+02  EK= 0.97434E+00 SP= -.92E+00 SK= 0.24E+00
 bond charge predicted
 prediction of wavefunctions
       N       E                     dE             d eps       ncg     rms          rms(c)
RMM:   1    -0.987552080610E+02    0.14893E+00   -0.16876E-01    72   0.230E+00    0.135E-01
RMM:   2    -0.987560259375E+02   -0.81788E-03   -0.10582E-02    73   0.539E-01    0.884E-02
RMM:   3    -0.987562396629E+02   -0.21373E-03   -0.29176E-03    78   0.212E-01    0.474E-02
RMM:   4    -0.987562338480E+02    0.58149E-05   -0.33595E-04    76   0.856E-02    0.180E-02
RMM:   5    -0.987562413380E+02   -0.74900E-05   -0.91236E-05    67   0.397E-02    0.803E-03
RMM:   6    -0.987562430320E+02   -0.16940E-05   -0.17765E-05    49   0.191E-02
     18 T=   484. E= -.98602858E+02 F= -.98756243E+02 E0= -.98758176E+02  EK= 0.93877E+00 SP= -.10E+01 SK= 0.24E+00
 bond charge predicted
 prediction of wavefunctions
       N       E                     dE             d eps       ncg     rms          rms(c)
RMM:   1    -0.985873113440E+02    0.16893E+00   -0.13719E-01    72   0.216E+00    0.101E-01
RMM:   2    -0.985880486463E+02   -0.73730E-03   -0.81872E-03    72   0.524E-01    0.677E-02
RMM:   3    -0.985882625065E+02   -0.21386E-03   -0.23629E-03    77   0.203E-01    0.306E-02
RMM:   4    -0.985882867625E+02   -0.24256E-04   -0.29131E-04    76   0.815E-02    0.130E-02
RMM:   5    -0.985882935568E+02   -0.67943E-05   -0.63941E-05    63   0.353E-02    0.501E-03
RMM:   6    -0.985882962589E+02   -0.27021E-05   -0.10207E-05    48   0.147E-02
     19 T=   453. E= -.98597697E+02 F= -.98588296E+02 E0= -.98590229E+02  EK= 0.87895E+00 SP= -.11E+01 SK= 0.25E+00
 bond charge predicted
 prediction of wavefunctions
       N       E                     dE             d eps       ncg     rms          rms(c)
RMM:   1    -0.984969258649E+02    0.91368E-01   -0.17037E-01    72   0.243E+00    0.143E-01
RMM:   2    -0.984977211663E+02   -0.79530E-03   -0.10722E-02    74   0.569E-01    0.101E-01
RMM:   3    -0.984977338519E+02   -0.12686E-04   -0.18963E-03    72   0.215E-01    0.391E-02
RMM:   4    -0.984977733317E+02   -0.39480E-04   -0.46516E-04    77   0.892E-02    0.236E-02
RMM:   5    -0.984977801351E+02   -0.68033E-05   -0.59420E-05    65   0.372E-02    0.977E-03
RMM:   6    -0.984977856177E+02   -0.54826E-05   -0.14578E-05    47   0.181E-02
     20 T=   462. E= -.98590598E+02 F= -.98497786E+02 E0= -.98499718E+02  EK= 0.89519E+00 SP= -.12E+01 SK= 0.26E+00
 bond charge predicted
 prediction of wavefunctions
       N       E                     dE             d eps       ncg     rms          rms(c)
RMM:   1    -0.985711893964E+02   -0.73409E-01   -0.13034E-01    72   0.213E+00    0.121E-01
RMM:   2    -0.985721667214E+02   -0.97733E-03   -0.11530E-02    75   0.501E-01    0.864E-02
RMM:   3    -0.985722505081E+02   -0.83787E-04   -0.22307E-03    74   0.192E-01    0.354E-02
RMM:   4    -0.985722745338E+02   -0.24026E-04   -0.28317E-04    75   0.792E-02    0.177E-02
RMM:   5    -0.985722854086E+02   -0.10875E-04   -0.69297E-05    64   0.356E-02    0.789E-03
RMM:   6    -0.985722904879E+02   -0.50793E-05   -0.11714E-05    48   0.153E-02
     21 T=   556. E= -.98593678E+02 F= -.98572290E+02 E0= -.98574223E+02  EK= 0.10777E+01 SP= -.14E+01 SK= 0.26E+00
Information: wavefunction orthogonal band   36  0.8981
 bond charge predicted
 prediction of wavefunctions
       N       E                     dE             d eps       ncg     rms          rms(c)
RMM:   1    -0.987345344773E+02   -0.16225E+00   -0.93167E-02    72   0.195E+00    0.830E-02
RMM:   2    -0.987353330920E+02   -0.79861E-03   -0.85878E-03    74   0.413E-01    0.558E-02
RMM:   3    -0.987355355016E+02   -0.20241E-03   -0.21046E-03    77   0.164E-01    0.425E-02
RMM:   4    -0.987355590516E+02   -0.23550E-04   -0.19713E-04    71   0.672E-02    0.151E-02
RMM:   5    -0.987355774817E+02   -0.18430E-04   -0.65948E-05    67   0.350E-02    0.730E-03
RMM:   6    -0.987355808390E+02   -0.33573E-05   -0.12170E-05    48   0.146E-02
     22 T=   701. E= -.98612968E+02 F= -.98735581E+02 E0= -.98737513E+02  EK= 0.13592E+01 SP= -.15E+01 SK= 0.23E+00
 bond charge predicted
 prediction of wavefunctions
       N       E                     dE             d eps       ncg     rms          rms(c)
RMM:   1    -0.987325558966E+02    0.30216E-02   -0.16773E-01    72   0.269E+00    0.123E-01
RMM:   2    -0.987336807072E+02   -0.11248E-02   -0.12241E-02    74   0.530E-01    0.856E-02
RMM:   3    -0.987339179918E+02   -0.23728E-03   -0.25767E-03    77   0.214E-01    0.571E-02
RMM:   4    -0.987339658742E+02   -0.47882E-04   -0.42596E-04    76   0.889E-02    0.166E-02
RMM:   5    -0.987339784287E+02   -0.12555E-04   -0.54052E-05    63   0.353E-02    0.505E-03
RMM:   6    -0.987339850080E+02   -0.65793E-05   -0.13666E-05    48   0.168E-02
     23 T=   769. E= -.98630082E+02 F= -.98733985E+02 E0= -.98735918E+02  EK= 0.14918E+01 SP= -.16E+01 SK= 0.17E+00
 bond charge predicted
 prediction of wavefunctions
       N       E                     dE             d eps       ncg     rms          rms(c)
RMM:   1    -0.984291506531E+02    0.30483E+00   -0.26787E-01    72   0.333E+00    0.158E-01
RMM:   2    -0.984305329612E+02   -0.13823E-02   -0.15339E-02    72   0.716E-01    0.104E-01
RMM:   3    -0.984308372294E+02   -0.30427E-03   -0.33648E-03    76   0.276E-01    0.631E-02
RMM:   4    -0.984308786559E+02   -0.41427E-04   -0.55207E-04    76   0.105E-01    0.177E-02
RMM:   5    -0.984308910495E+02   -0.12394E-04   -0.10927E-04    67   0.467E-02    0.620E-03
RMM:   6    -0.984308963380E+02   -0.52884E-05   -0.19281E-05    52   0.197E-02
     24 T=   689. E= -.98613052E+02 F= -.98430896E+02 E0= -.98432829E+02  EK= 0.13355E+01 SP= -.16E+01 SK= 0.13E+00
 bond charge predicted
 prediction of wavefunctions
       N       E                     dE             d eps       ncg     rms          rms(c)
RMM:   1    -0.981541407049E+02    0.27675E+00   -0.67819E-01    72   0.471E+00    0.339E-01
RMM:   2    -0.981557507310E+02   -0.16100E-02   -0.35427E-02    72   0.107E+00    0.221E-01
RMM:   3    -0.981559455040E+02   -0.19477E-03   -0.81338E-03    73   0.423E-01    0.850E-02
RMM:   4    -0.981559694552E+02   -0.23951E-04   -0.10853E-03    73   0.161E-01    0.415E-02
RMM:   5    -0.981559959989E+02   -0.26544E-04   -0.30174E-04    74   0.765E-02    0.139E-02
RMM:   6    -0.981560054565E+02   -0.94576E-05   -0.69645E-05    69   0.372E-02
     25 T=   611. E= -.98584072E+02 F= -.98156005E+02 E0= -.98157938E+02  EK= 0.11853E+01 SP= -.17E+01 SK= 0.10E+00
Information: wavefunction orthogonal band   34  0.8991
 bond charge predicted
 prediction of wavefunctions
       N       E                     dE             d eps       ncg     rms          rms(c)
RMM:   1    -0.982638231150E+02   -0.10783E+00   -0.27395E-01    72   0.341E+00    0.214E-01
RMM:   2    -0.982649989587E+02   -0.11758E-02   -0.16792E-02    72   0.704E-01    0.143E-01
RMM:   3    -0.982652908566E+02   -0.29190E-03   -0.42316E-03    74   0.297E-01    0.681E-02
RMM:   4    -0.982653512162E+02   -0.60360E-04   -0.68959E-04    76   0.121E-01    0.323E-02
RMM:   5    -0.982653781993E+02   -0.26983E-04   -0.14155E-04    73   0.536E-02    0.970E-03
RMM:   6    -0.982653883427E+02   -0.10143E-04   -0.31938E-05    54   0.258E-02    0.660E-03
RMM:   7    -0.982653954757E+02   -0.71330E-05   -0.63118E-06    48   0.115E-02
     26 T=   700. E= -.98607953E+02 F= -.98265395E+02 E0= -.98267328E+02  EK= 0.13579E+01 SP= -.18E+01 SK= 0.85E-01
 bond charge predicted
 prediction of wavefunctions
       N       E                     dE             d eps       ncg     rms          rms(c)
RMM:   1    -0.984446855920E+02   -0.17930E+00   -0.20598E-01    72   0.284E+00    0.197E-01
RMM:   2    -0.984453988222E+02   -0.71323E-03   -0.10919E-02    72   0.570E-01    0.131E-01
RMM:   3    -0.984455266987E+02   -0.12788E-03   -0.26275E-03    73   0.239E-01    0.460E-02
RMM:   4    -0.984455657303E+02   -0.39032E-04   -0.58883E-04    76   0.101E-01    0.282E-02
RMM:   5    -0.984455748970E+02   -0.91666E-05   -0.99637E-05    68   0.445E-02    0.975E-03
RMM:   6    -0.984455787365E+02   -0.38396E-05   -0.27691E-05    55   0.224E-02
     27 T=   830. E= -.98627421E+02 F= -.98445579E+02 E0= -.98447511E+02  EK= 0.16092E+01 SP= -.18E+01 SK= 0.51E-01
Information: wavefunction orthogonal band   35  0.8948
 bond charge predicted
 prediction of wavefunctions
       N       E                     dE             d eps       ncg     rms          rms(c)
RMM:   1    -0.984158711223E+02    0.29704E-01   -0.35968E-01    72   0.369E+00    0.227E-01
RMM:   2    -0.984171519236E+02   -0.12808E-02   -0.18514E-02    72   0.718E-01    0.153E-01
RMM:   3    -0.984172672492E+02   -0.11533E-03   -0.36828E-03    72   0.283E-01    0.621E-02
RMM:   4    -0.984173412573E+02   -0.74008E-04   -0.93318E-04    78   0.124E-01    0.324E-02
RMM:   5    -0.984173446764E+02   -0.34191E-05   -0.13215E-04    71   0.499E-02    0.996E-03
RMM:   6    -0.984173484034E+02   -0.37270E-05   -0.24460E-05    54   0.228E-02
     28 T=   856. E= -.98620588E+02 F= -.98417348E+02 E0= -.98419281E+02  EK= 0.16591E+01 SP= -.19E+01 SK= 0.21E-01
 bond charge predicted
 prediction of wavefunctions
       N       E                     dE             d eps       ncg     rms          rms(c)
RMM:   1    -0.982661999633E+02    0.15114E+00   -0.27281E-01    72   0.309E+00    0.152E-01
RMM:   2    -0.982673693174E+02   -0.11694E-02   -0.14297E-02    72   0.698E-01    0.931E-02
RMM:   3    -0.982676297527E+02   -0.26044E-03   -0.32359E-03    75   0.258E-01    0.514E-02
RMM:   4    -0.982676613760E+02   -0.31623E-04   -0.47578E-04    75   0.104E-01    0.217E-02
RMM:   5    -0.982676758444E+02   -0.14468E-04   -0.10652E-04    69   0.474E-02    0.747E-03
RMM:   6    -0.982676838655E+02   -0.80211E-05   -0.24074E-05    54   0.215E-02
     29 T=   804. E= -.98610871E+02 F= -.98267684E+02 E0= -.98269617E+02  EK= 0.15583E+01 SP= -.19E+01 SK= 0.45E-02
 bond charge predicted
 prediction of wavefunctions
       N       E                     dE             d eps       ncg     rms          rms(c)
RMM:   1    -0.981475848198E+02    0.12009E+00   -0.23916E-01    72   0.298E+00    0.125E-01
RMM:   2    -0.981487247035E+02   -0.11399E-02   -0.11957E-02    72   0.670E-01    0.753E-02
RMM:   3    -0.981489522040E+02   -0.22750E-03   -0.22481E-03    74   0.245E-01    0.457E-02
RMM:   4    -0.981489969429E+02   -0.44739E-04   -0.50287E-04    76   0.104E-01    0.146E-02
RMM:   5    -0.981490096961E+02   -0.12753E-04   -0.10505E-04    70   0.447E-02    0.868E-03
RMM:   6    -0.981490146433E+02   -0.49472E-05   -0.11399E-05    48   0.169E-02
     30 T=   752. E= -.98604199E+02 F= -.98149015E+02 E0= -.98150947E+02  EK= 0.14586E+01 SP= -.19E+01 SK= 0.20E-04
 bond charge predicted
 prediction of wavefunctions
       N       E                     dE             d eps       ncg     rms          rms(c)
RMM:   1    -0.981723713604E+02   -0.23362E-01   -0.23237E-01    72   0.280E+00    0.138E-01
RMM:   2    -0.981734238875E+02   -0.10525E-02   -0.13073E-02    72   0.649E-01    0.875E-02
RMM:   3    -0.981735861324E+02   -0.16224E-03   -0.28074E-03    76   0.235E-01    0.474E-02
RMM:   4    -0.981736076442E+02   -0.21512E-04   -0.49155E-04    75   0.982E-02    0.181E-02
RMM:   5    -0.981736167988E+02   -0.91546E-05   -0.83670E-05    69   0.415E-02    0.106E-02
RMM:   6    -0.981736212272E+02   -0.44284E-05   -0.18169E-05    51   0.200E-02
     31 T=   763. E= -.98601142E+02 F= -.98173621E+02 E0= -.98175554E+02  EK= 0.14785E+01 SP= -.19E+01 SK= 0.27E-02
 bond charge predicted
 prediction of wavefunctions
       N       E                     dE             d eps       ncg     rms          rms(c)
RMM:   1    -0.983845851299E+02   -0.21097E+00   -0.17128E-01    72   0.243E+00    0.146E-01
RMM:   2    -0.983852162911E+02   -0.63116E-03   -0.98139E-03    72   0.571E-01    0.939E-02
RMM:   3    -0.983852599001E+02   -0.43609E-04   -0.22022E-03    76   0.215E-01    0.443E-02
RMM:   4    -0.983852849255E+02   -0.25025E-04   -0.38122E-04    75   0.887E-02    0.225E-02
RMM:   5    -0.983852927260E+02   -0.78005E-05   -0.78975E-05    65   0.388E-02    0.102E-02
RMM:   6    -0.983852952930E+02   -0.25670E-05   -0.12666E-05    49   0.166E-02
     32 T=   851. E= -.98610935E+02 F= -.98385295E+02 E0= -.98387228E+02  EK= 0.16501E+01 SP= -.19E+01 SK= 0.14E-01
 bond charge predicted
 prediction of wavefunctions
       N       E                     dE             d eps       ncg     rms          rms(c)
RMM:   1    -0.986406898782E+02   -0.25540E+00   -0.16050E-01    72   0.248E+00    0.132E-01
RMM:   2    -0.986416312527E+02   -0.94137E-03   -0.11739E-02    72   0.552E-01    0.790E-02
RMM:   3    -0.986418903369E+02   -0.25908E-03   -0.30667E-03    78   0.223E-01    0.565E-02
RMM:   4    -0.986418979534E+02   -0.76164E-05   -0.33636E-04    71   0.854E-02    0.195E-02
RMM:   5    -0.986419187518E+02   -0.20798E-04   -0.13204E-04    72   0.473E-02    0.102E-02
RMM:   6    -0.986419206506E+02   -0.18987E-05   -0.26459E-05    54   0.226E-02
     33 T=   940. E= -.98628031E+02 F= -.98641921E+02 E0= -.98643853E+02  EK= 0.18227E+01 SP= -.19E+01 SK= 0.45E-01
 bond charge predicted
 prediction of wavefunctions
       N       E                     dE             d eps       ncg     rms          rms(c)
RMM:   1    -0.986968858784E+02   -0.54967E-01   -0.28489E-01    72   0.330E+00    0.197E-01
RMM:   2    -0.986983582360E+02   -0.14724E-02   -0.20031E-02    72   0.718E-01    0.124E-01
RMM:   3    -0.986987880378E+02   -0.42980E-03   -0.54721E-03    76   0.310E-01    0.730E-02
RMM:   4    -0.986988122558E+02   -0.24218E-04   -0.56823E-04    72   0.112E-01    0.306E-02
RMM:   5    -0.986988336098E+02   -0.21354E-04   -0.19100E-04    74   0.616E-02    0.106E-02
RMM:   6    -0.986988407843E+02   -0.71745E-05   -0.54915E-05    65   0.327E-02
     34 T=   911. E= -.98629549E+02 F= -.98698841E+02 E0= -.98700773E+02  EK= 0.17659E+01 SP= -.18E+01 SK= 0.99E-01
 bond charge predicted
 prediction of wavefunctions
       N       E                     dE             d eps       ncg     rms          rms(c)
RMM:   1    -0.985075333722E+02    0.19130E+00   -0.33551E-01    72   0.349E+00    0.199E-01
RMM:   2    -0.985090116842E+02   -0.14783E-02   -0.20033E-02    72   0.828E-01    0.129E-01
RMM:   3    -0.985093246230E+02   -0.31294E-03   -0.47668E-03    74   0.327E-01    0.643E-02
RMM:   4    -0.985093726675E+02   -0.48045E-04   -0.73113E-04    76   0.119E-01    0.306E-02
RMM:   5    -0.985093865295E+02   -0.13862E-04   -0.14588E-04    70   0.556E-02    0.947E-03
RMM:   6    -0.985093920482E+02   -0.55188E-05   -0.31231E-05    56   0.257E-02
     35 T=   755. E= -.98607059E+02 F= -.98509392E+02 E0= -.98511331E+02  EK= 0.14643E+01 SP= -.17E+01 SK= 0.16E+00
 bond charge predicted
 prediction of wavefunctions
       N       E                     dE             d eps       ncg     rms          rms(c)
RMM:   1    -0.983631542216E+02    0.14623E+00   -0.71162E-01    72   0.494E+00    0.317E-01
RMM:   2    -0.983651624656E+02   -0.20082E-02   -0.35019E-02    72   0.109E+00    0.206E-01
RMM:   3    -0.983654082055E+02   -0.24574E-03   -0.75425E-03    73   0.431E-01    0.733E-02
RMM:   4    -0.983655484734E+02   -0.14027E-03   -0.17392E-03    79   0.183E-01    0.444E-02
RMM:   5    -0.983655572694E+02   -0.87960E-05   -0.21247E-04    73   0.710E-02    0.133E-02
RMM:   6    -0.983655649050E+02   -0.76357E-05   -0.44733E-05    61   0.330E-02
     36 T=   626. E= -.98589670E+02 F= -.98365565E+02 E0= -.98367621E+02  EK= 0.12130E+01 SP= -.16E+01 SK= 0.19E+00
 bond charge predicted
 prediction of wavefunctions
       N       E                     dE             d eps       ncg     rms          rms(c)
RMM:   1    -0.985007176435E+02   -0.13516E+00   -0.36480E-01    72   0.378E+00    0.266E-01
RMM:   2    -0.985019476634E+02   -0.12300E-02   -0.20934E-02    72   0.792E-01    0.176E-01
RMM:   3    -0.985022106734E+02   -0.26301E-03   -0.50261E-03    74   0.329E-01    0.718E-02
RMM:   4    -0.985022671017E+02   -0.56428E-04   -0.83897E-04    75   0.132E-01    0.292E-02
RMM:   5    -0.985023088439E+02   -0.41742E-04   -0.23145E-04    75   0.674E-02    0.132E-02
RMM:   6    -0.985023401551E+02   -0.31311E-04   -0.45340E-05    60   0.281E-02    0.652E-03
RMM:   7    -0.985023687954E+02   -0.28640E-04   -0.91748E-06    48   0.130E-02    0.229E-03
RMM:   8    -0.985023875887E+02   -0.18793E-04   -0.32910E-06    47   0.758E-03    0.129E-03
RMM:   9    -0.985024132210E+02   -0.25632E-04   -0.35956E-06    48   0.660E-03    0.110E-03
RMM:  10    -0.985024265597E+02   -0.13339E-04   -0.20570E-06    41   0.456E-03    0.851E-04
RMM:  11    -0.985024338006E+02   -0.72409E-05   -0.10758E-06    33   0.368E-03
     37 T=   622. E= -.98610938E+02 F= -.98502434E+02 E0= -.98505418E+02  EK= 0.12059E+01 SP= -.15E+01 SK= 0.21E+00
 bond charge predicted
 prediction of wavefunctions
       N       E                     dE             d eps       ncg     rms          rms(c)
RMM:   1    -0.986592133473E+02   -0.15679E+00   -0.18805E-01    72   0.272E+00    0.187E-01
RMM:   2    -0.986600643757E+02   -0.85103E-03   -0.12094E-02    72   0.584E-01    0.127E-01
RMM:   3    -0.986602376839E+02   -0.17331E-03   -0.29095E-03    77   0.231E-01    0.934E-02
RMM:   4    -0.986602315437E+02    0.61403E-05   -0.51080E-04    71   0.107E-01    0.315E-02
RMM:   5    -0.986602533625E+02   -0.21819E-04   -0.16951E-04    78   0.556E-02    0.140E-02
RMM:   6    -0.986602597113E+02   -0.63487E-05   -0.26166E-05    54   0.233E-02
     38 T=   630. E= -.98615217E+02 F= -.98660260E+02 E0= -.98664492E+02  EK= 0.12221E+01 SP= -.14E+01 SK= 0.25E+00
 bond charge predicted
 prediction of wavefunctions
       N       E                     dE             d eps       ncg     rms          rms(c)
RMM:   1    -0.986845942727E+02   -0.24341E-01   -0.30179E-01    72   0.322E+00    0.526E-01
RMM:   2    -0.986850780042E+02   -0.48373E-03   -0.50513E-02    73   0.913E-01    0.298E-01
RMM:   3    -0.986827341740E+02    0.23438E-02   -0.52001E-03    72   0.344E-01    0.211E-01
RMM:   4    -0.986825388851E+02    0.19529E-03   -0.58091E-03    73   0.269E-01    0.173E-01
RMM:   5    -0.986828836870E+02   -0.34480E-03   -0.17953E-03    75   0.171E-01    0.210E-01
RMM:   6    -0.986820186436E+02    0.86504E-03   -0.11292E-03    73   0.117E-01    0.331E-02
RMM:   7    -0.986820854496E+02   -0.66806E-04   -0.11234E-04    71   0.505E-02    0.274E-02
RMM:   8    -0.986821220512E+02   -0.36602E-04   -0.15976E-04    71   0.450E-02    0.192E-02
RMM:   9    -0.986821247968E+02   -0.27456E-05   -0.13999E-05    49   0.180E-02
     39 T=   575. E= -.98604380E+02 F= -.98682125E+02 E0= -.98686170E+02  EK= 0.11154E+01 SP= -.13E+01 SK= 0.27E+00
Information: wavefunction orthogonal band   36  0.8641
 bond charge predicted
 prediction of wavefunctions
       N       E                     dE             d eps       ncg     rms          rms(c)
RMM:   1    -0.986542400051E+02    0.27882E-01   -0.18089E-01    72   0.244E+00    0.284E-01
RMM:   2    -0.986534720948E+02    0.76791E-03   -0.17317E-02    73   0.634E-01    0.174E-01
RMM:   3    -0.986532562253E+02    0.21587E-03   -0.22617E-03    72   0.220E-01    0.817E-02
RMM:   4    -0.986533198662E+02   -0.63641E-04   -0.84171E-04    75   0.117E-01    0.411E-02
RMM:   5    -0.986533577344E+02   -0.37868E-04   -0.15164E-04    71   0.555E-02    0.136E-02
RMM:   6    -0.986533780851E+02   -0.20351E-04   -0.48382E-05    61   0.282E-02    0.627E-03
RMM:   7    -0.986533937130E+02   -0.15628E-04   -0.85776E-06    48   0.133E-02    0.420E-03
RMM:   8    -0.986534001432E+02   -0.64302E-05   -0.30179E-06    47   0.769E-03
     40 T=   498. E= -.98599208E+02 F= -.98653400E+02 E0= -.98657408E+02  EK= 0.96548E+00 SP= -.12E+01 SK= 0.29E+00
 bond charge predicted
 prediction of wavefunctions
       N       E                     dE             d eps       ncg     rms          rms(c)
RMM:   1    -0.986401035626E+02    0.13290E-01   -0.13147E-01    72   0.214E+00    0.980E-02
RMM:   2    -0.986409274287E+02   -0.82387E-03   -0.82469E-03    72   0.495E-01    0.642E-02
RMM:   3    -0.986411691560E+02   -0.24173E-03   -0.21622E-03    76   0.183E-01    0.495E-02
RMM:   4    -0.986412320845E+02   -0.62929E-04   -0.30951E-04    75   0.796E-02    0.239E-02
RMM:   5    -0.986412898297E+02   -0.57745E-04   -0.70780E-05    64   0.374E-02    0.464E-03
RMM:   6    -0.986413147310E+02   -0.24901E-04   -0.14827E-05    48   0.176E-02    0.231E-03
RMM:   7    -0.986413383874E+02   -0.23656E-04   -0.57477E-06    47   0.105E-02    0.109E-03
RMM:   8    -0.986413591490E+02   -0.20762E-04   -0.30165E-06    47   0.701E-03    0.812E-04
RMM:   9    -0.986413771501E+02   -0.18001E-04   -0.23658E-06    43   0.529E-03    0.640E-04
RMM:  10    -0.986413843994E+02   -0.72493E-05   -0.12364E-06    39   0.402E-03
     41 T=   436. E= -.98597566E+02 F= -.98641384E+02 E0= -.98645645E+02  EK= 0.84546E+00 SP= -.11E+01 SK= 0.28E+00
 bond charge predicted
 prediction of wavefunctions
       N       E                     dE             d eps       ncg     rms          rms(c)
RMM:   1    -0.986737681829E+02   -0.32391E-01   -0.11646E-01    72   0.198E+00    0.186E-01
RMM:   2    -0.986726047704E+02    0.11634E-02   -0.87402E-03    72   0.511E-01    0.158E-01
RMM:   3    -0.986714420532E+02    0.11627E-02   -0.90389E-03    72   0.338E-01    0.846E-02
RMM:   4    -0.986714036898E+02    0.38363E-04   -0.12102E-03    74   0.148E-01    0.589E-02
RMM:   5    -0.986712577690E+02    0.14592E-03   -0.51647E-04    71   0.993E-02    0.357E-02
RMM:   6    -0.986712155848E+02    0.42184E-04   -0.25797E-04    75   0.543E-02    0.163E-02
RMM:   7    -0.986713141996E+02   -0.98615E-04   -0.12822E-04    73   0.420E-02    0.106E-02
RMM:   8    -0.986713838681E+02   -0.69669E-04   -0.20138E-05    50   0.192E-02    0.585E-03
RMM:   9    -0.986714425965E+02   -0.58728E-04   -0.11572E-05    48   0.128E-02    0.251E-03
RMM:  10    -0.986715164858E+02   -0.73889E-04   -0.12726E-05    48   0.111E-02    0.157E-03
RMM:  11    -0.986715470382E+02   -0.30552E-04   -0.74251E-06    47   0.786E-03    0.105E-03
RMM:  12    -0.986715543125E+02   -0.72743E-05   -0.20411E-06    42   0.485E-03
     42 T=   403. E= -.98595531E+02 F= -.98671554E+02 E0= -.98673634E+02  EK= 0.78163E+00 SP= -.97E+00 SK= 0.26E+00
 bond charge predicted
 prediction of wavefunctions
       N       E                     dE             d eps       ncg     rms          rms(c)
RMM:   1    -0.987782076876E+02   -0.10666E+00   -0.12465E-01    72   0.206E+00    0.480E-01
RMM:   2    -0.987686805914E+02    0.95271E-02   -0.31683E-02    72   0.754E-01    0.171E-01
RMM:   3    -0.987685498783E+02    0.13071E-03   -0.15267E-02    76   0.431E-01    0.134E-01
RMM:   4    -0.987681076541E+02    0.44222E-03   -0.21699E-03    72   0.203E-01    0.513E-02
RMM:   5    -0.987678838266E+02    0.22383E-03   -0.60636E-04    71   0.117E-01    0.397E-02
RMM:   6    -0.987679370814E+02   -0.53255E-04   -0.32230E-04    74   0.701E-02    0.157E-02
RMM:   7    -0.987681246369E+02   -0.18756E-03   -0.86528E-05    69   0.371E-02    0.626E-03
RMM:   8    -0.987682045895E+02   -0.79953E-04   -0.30842E-05    56   0.200E-02    0.577E-03
RMM:   9    -0.987684325222E+02   -0.22793E-03   -0.41819E-05    59   0.209E-02    0.500E-03
RMM:  10    -0.987684530172E+02   -0.20495E-04   -0.80553E-06    47   0.102E-02    0.419E-03
RMM:  11    -0.987685077192E+02   -0.54702E-04   -0.12794E-05    47   0.115E-02    0.397E-03
RMM:  12    -0.987685345346E+02   -0.26815E-04   -0.46824E-06    46   0.725E-03    0.172E-03
RMM:  13    -0.987685499534E+02   -0.15419E-04   -0.33743E-06    45   0.593E-03    0.114E-03
RMM:  14    -0.987685554959E+02   -0.55425E-05   -0.10811E-06    34   0.372E-03
     43 T=   406. E= -.98598211E+02 F= -.98768555E+02 E0= -.98770491E+02  EK= 0.78682E+00 SP= -.86E+00 SK= 0.24E+00
 bond charge predicted
 prediction of wavefunctions
       N       E                     dE             d eps       ncg     rms          rms(c)
RMM:   1    -0.988886807195E+02   -0.12013E+00   -0.10149E-01    72   0.191E+00    0.177E-01
RMM:   2    -0.988884094877E+02    0.27123E-03   -0.11424E-02    73   0.483E-01    0.921E-02
RMM:   3    -0.988885178161E+02   -0.10833E-03   -0.35979E-03    79   0.217E-01    0.632E-02
RMM:   4    -0.988884458360E+02    0.71980E-04   -0.38200E-04    71   0.877E-02    0.255E-02
RMM:   5    -0.988884293326E+02    0.16503E-04   -0.18436E-04    71   0.589E-02    0.145E-02
RMM:   6    -0.988884464484E+02   -0.17116E-04   -0.65356E-05    68   0.317E-02    0.783E-03
RMM:   7    -0.988884712362E+02   -0.24788E-04   -0.15801E-05    49   0.166E-02    0.258E-03
RMM:   8    -0.988884855233E+02   -0.14287E-04   -0.37646E-06    47   0.870E-03    0.202E-03
RMM:   9    -0.988885228934E+02   -0.37370E-04   -0.57808E-06    47   0.790E-03    0.126E-03
RMM:  10    -0.988885294148E+02   -0.65214E-05   -0.15428E-06    40   0.448E-03
     44 T=   418. E= -.98605905E+02 F= -.98888529E+02 E0= -.98890462E+02  EK= 0.80961E+00 SP= -.75E+00 SK= 0.22E+00
 bond charge predicted
 prediction of wavefunctions
       N       E                     dE             d eps       ncg     rms          rms(c)
RMM:   1    -0.989035360583E+02   -0.15013E-01   -0.11634E-01    72   0.203E+00    0.102E-01
RMM:   2    -0.989044891916E+02   -0.95313E-03   -0.10586E-02    73   0.447E-01    0.756E-02
RMM:   3    -0.989046448286E+02   -0.15564E-03   -0.18962E-03    78   0.178E-01    0.499E-02
RMM:   4    -0.989046711652E+02   -0.26337E-04   -0.28372E-04    72   0.779E-02    0.114E-02
RMM:   5    -0.989046856593E+02   -0.14494E-04   -0.90477E-05    65   0.365E-02    0.639E-03
RMM:   6    -0.989046892900E+02   -0.36307E-05   -0.12416E-05    49   0.151E-02
     45 T=   382. E= -.98605755E+02 F= -.98904689E+02 E0= -.98906622E+02  EK= 0.74002E+00 SP= -.65E+00 SK= 0.21E+00
 bond charge predicted
 prediction of wavefunctions
       N       E                     dE             d eps       ncg     rms          rms(c)
RMM:   1    -0.987912380531E+02    0.11345E+00   -0.13758E-01    72   0.217E+00    0.129E-01
RMM:   2    -0.987917458579E+02   -0.50780E-03   -0.74234E-03    72   0.509E-01    0.853E-02
RMM:   3    -0.987918487756E+02   -0.10292E-03   -0.16891E-03    75   0.193E-01    0.383E-02
RMM:   4    -0.987918652307E+02   -0.16455E-04   -0.28263E-04    75   0.800E-02    0.139E-02
RMM:   5    -0.987918707635E+02   -0.55328E-05   -0.57623E-05    61   0.331E-02    0.562E-03
RMM:   6    -0.987918727140E+02   -0.19505E-05   -0.91935E-06    48   0.149E-02
     46 T=   295. E= -.98593856E+02 F= -.98791873E+02 E0= -.98793805E+02  EK= 0.57127E+00 SP= -.55E+00 SK= 0.18E+00
 bond charge predicted
 prediction of wavefunctions
       N       E                     dE             d eps       ncg     rms          rms(c)
RMM:   1    -0.987036077736E+02    0.88263E-01   -0.21020E-01    72   0.267E+00    0.160E-01
RMM:   2    -0.987042871431E+02   -0.67937E-03   -0.10886E-02    72   0.622E-01    0.107E-01
RMM:   3    -0.987044136036E+02   -0.12646E-03   -0.24415E-03    73   0.237E-01    0.434E-02
RMM:   4    -0.987044498822E+02   -0.36279E-04   -0.48350E-04    79   0.952E-02    0.247E-02
RMM:   5    -0.987044558830E+02   -0.60008E-05   -0.58615E-05    62   0.375E-02    0.691E-03
RMM:   6    -0.987044592991E+02   -0.34161E-05   -0.16252E-05    50   0.187E-02
     47 T=   230. E= -.98587491E+02 F= -.98704459E+02 E0= -.98706392E+02  EK= 0.44514E+00 SP= -.47E+00 SK= 0.14E+00
 bond charge predicted
 prediction of wavefunctions
       N       E                     dE             d eps       ncg     rms          rms(c)
RMM:   1    -0.987451477562E+02   -0.40692E-01   -0.11815E-01    72   0.211E+00    0.121E-01
RMM:   2    -0.987456518065E+02   -0.50405E-03   -0.67857E-03    72   0.457E-01    0.843E-02
RMM:   3    -0.987457794173E+02   -0.12761E-03   -0.18017E-03    76   0.184E-01    0.408E-02
RMM:   4    -0.987457974780E+02   -0.18061E-04   -0.27561E-04    76   0.729E-02    0.211E-02
RMM:   5    -0.987457984952E+02   -0.10172E-05   -0.43518E-05    59   0.299E-02    0.611E-03
RMM:   6    -0.987457996182E+02   -0.11230E-05   -0.89866E-06    48   0.137E-02
     48 T=   229. E= -.98595028E+02 F= -.98745800E+02 E0= -.98747732E+02  EK= 0.44491E+00 SP= -.39E+00 SK= 0.97E-01
 bond charge predicted
 prediction of wavefunctions
       N       E                     dE             d eps       ncg     rms          rms(c)
RMM:   1    -0.988221859854E+02   -0.76387E-01   -0.65145E-02    72   0.152E+00    0.101E-01
RMM:   2    -0.988224447769E+02   -0.25879E-03   -0.38435E-03    72   0.356E-01    0.652E-02
RMM:   3    -0.988224998595E+02   -0.55083E-04   -0.92984E-04    76   0.136E-01    0.262E-02
RMM:   4    -0.988225070787E+02   -0.72192E-05   -0.13861E-04    73   0.542E-02    0.129E-02
RMM:   5    -0.988225110544E+02   -0.39757E-05   -0.33360E-05    55   0.247E-02    0.572E-03
RMM:   6    -0.988225129888E+02   -0.19344E-05   -0.69046E-06    48   0.113E-02
     49 T=   251. E= -.98599320E+02 F= -.98822513E+02 E0= -.98824446E+02  EK= 0.48623E+00 SP= -.33E+00 SK= 0.66E-01
 bond charge predicted
 prediction of wavefunctions
       N       E                     dE             d eps       ncg     rms          rms(c)
RMM:   1    -0.988510664595E+02   -0.28555E-01   -0.95284E-02    72   0.179E+00    0.118E-01
RMM:   2    -0.988513811318E+02   -0.31467E-03   -0.52241E-03    72   0.412E-01    0.760E-02
RMM:   3    -0.988514221802E+02   -0.41048E-04   -0.11462E-03    74   0.156E-01    0.324E-02
RMM:   4    -0.988514287746E+02   -0.65944E-05   -0.19927E-04    75   0.639E-02    0.161E-02
RMM:   5    -0.988514303519E+02   -0.15773E-05   -0.39736E-05    60   0.278E-02    0.581E-03
RMM:   6    -0.988514317569E+02   -0.14050E-05   -0.81685E-06    48   0.130E-02
     50 T=   253. E= -.98596442E+02 F= -.98851432E+02 E0= -.98853364E+02  EK= 0.49144E+00 SP= -.28E+00 SK= 0.42E-01
 bond charge predicted
 prediction of wavefunctions
       N       E                     dE             d eps       ncg     rms          rms(c)
RMM:   1    -0.988548444561E+02   -0.34141E-02   -0.89657E-02    72   0.170E+00    0.844E-02
RMM:   2    -0.988552553782E+02   -0.41092E-03   -0.50844E-03    72   0.427E-01    0.517E-02
RMM:   3    -0.988553470373E+02   -0.91659E-04   -0.11258E-03    75   0.154E-01    0.295E-02
RMM:   4    -0.988553486583E+02   -0.16210E-05   -0.14425E-04    74   0.607E-02    0.113E-02
RMM:   5    -0.988553526286E+02   -0.39702E-05   -0.43350E-05    60   0.273E-02    0.611E-03
RMM:   6    -0.988553547441E+02   -0.21156E-05   -0.52571E-06    48   0.105E-02
     51 T=   247. E= -.98592659E+02 F= -.98855355E+02 E0= -.98857287E+02  EK= 0.47918E+00 SP= -.24E+00 SK= 0.23E-01
 bond charge predicted
 prediction of wavefunctions
       N       E                     dE             d eps       ncg     rms          rms(c)
RMM:   1    -0.988890667375E+02   -0.33714E-01   -0.82604E-02    72   0.169E+00    0.823E-02
RMM:   2    -0.988894040766E+02   -0.33734E-03   -0.42950E-03    72   0.416E-01    0.498E-02
RMM:   3    -0.988894751671E+02   -0.71090E-04   -0.86896E-04    75   0.149E-01    0.269E-02
RMM:   4    -0.988894872326E+02   -0.12066E-04   -0.13622E-04    74   0.552E-02    0.113E-02
RMM:   5    -0.988894948607E+02   -0.76281E-05   -0.36920E-05    58   0.266E-02    0.357E-03
RMM:   6    -0.988894988980E+02   -0.40373E-05   -0.53472E-06    48   0.113E-02
     52 T=   258. E= -.98590976E+02 F= -.98889499E+02 E0= -.98891432E+02  EK= 0.50115E+00 SP= -.21E+00 SK= 0.96E-02
 bond charge predicted
 prediction of wavefunctions
       N       E                     dE             d eps       ncg     rms          rms(c)
RMM:   1    -0.989807595570E+02   -0.91265E-01   -0.69996E-02    72   0.150E+00    0.746E-02
RMM:   2    -0.989810853883E+02   -0.32583E-03   -0.41963E-03    72   0.376E-01    0.472E-02
RMM:   3    -0.989811523086E+02   -0.66920E-04   -0.10530E-03    77   0.140E-01    0.250E-02
RMM:   4    -0.989811629967E+02   -0.10688E-04   -0.15182E-04    73   0.537E-02    0.116E-02
RMM:   5    -0.989811685980E+02   -0.56013E-05   -0.32284E-05    56   0.245E-02    0.541E-03
RMM:   6    -0.989811719767E+02   -0.33787E-05   -0.52018E-06    48   0.104E-02
     53 T=   300. E= -.98592683E+02 F= -.98981172E+02 E0= -.98983105E+02  EK= 0.58206E+00 SP= -.20E+00 SK= 0.25E-02
 bond charge predicted
 prediction of wavefunctions
       N       E                     dE             d eps       ncg     rms          rms(c)
RMM:   1    -0.991012346413E+02   -0.12007E+00   -0.67567E-02    72   0.150E+00    0.831E-02
RMM:   2    -0.991015084815E+02   -0.27384E-03   -0.40759E-03    72   0.374E-01    0.522E-02
RMM:   3    -0.991015568936E+02   -0.48412E-04   -0.10221E-03    77   0.142E-01    0.264E-02
RMM:   4    -0.991015685667E+02   -0.11673E-04   -0.17342E-04    75   0.547E-02    0.142E-02
RMM:   5    -0.991015720840E+02   -0.35173E-05   -0.24885E-05    56   0.232E-02    0.566E-03
RMM:   6    -0.991015738119E+02   -0.17279E-05   -0.59183E-06    48   0.116E-02
     54 T=   358. E= -.98596879E+02 F= -.99101574E+02 E0= -.99103506E+02  EK= 0.69360E+00 SP= -.19E+00 SK= 0.19E-03
 bond charge predicted
 prediction of wavefunctions
       N       E                     dE             d eps       ncg     rms          rms(c)
RMM:   1    -0.991814618287E+02   -0.79890E-01   -0.79356E-02    72   0.164E+00    0.938E-02
RMM:   2    -0.991818173999E+02   -0.35557E-03   -0.52567E-03    72   0.409E-01    0.579E-02
RMM:   3    -0.991819181993E+02   -0.10080E-03   -0.15103E-03    78   0.162E-01    0.321E-02
RMM:   4    -0.991819329194E+02   -0.14720E-04   -0.19989E-04    74   0.636E-02    0.169E-02
RMM:   5    -0.991819433532E+02   -0.10434E-04   -0.48264E-05    63   0.316E-02    0.615E-03
RMM:   6    -0.991819471386E+02   -0.37854E-05   -0.14003E-05    49   0.173E-02
     55 T=   397. E= -.98600593E+02 F= -.99181947E+02 E0= -.99183880E+02  EK= 0.76994E+00 SP= -.19E+00 SK= 0.10E-03
 bond charge predicted
 prediction of wavefunctions
       N       E                     dE             d eps       ncg     rms          rms(c)
RMM:   1    -0.991689541220E+02    0.12989E-01   -0.99765E-02    72   0.179E+00    0.103E-01
RMM:   2    -0.991694424569E+02   -0.48833E-03   -0.67025E-03    72   0.454E-01    0.629E-02
RMM:   3    -0.991696040911E+02   -0.16163E-03   -0.19624E-03    78   0.179E-01    0.346E-02
RMM:   4    -0.991696168702E+02   -0.12779E-04   -0.24644E-04    74   0.692E-02    0.128E-02
RMM:   5    -0.991696243156E+02   -0.74454E-05   -0.50998E-05    62   0.315E-02    0.501E-03
RMM:   6    -0.991696290632E+02   -0.47477E-05   -0.12145E-05    49   0.160E-02
     56 T=   393. E= -.98599311E+02 F= -.99169629E+02 E0= -.99171562E+02  EK= 0.76247E+00 SP= -.19E+00 SK= 0.88E-03
 bond charge predicted
 prediction of wavefunctions
       N       E                     dE             d eps       ncg     rms          rms(c)
RMM:   1    -0.990935686959E+02    0.76056E-01   -0.13049E-01    72   0.204E+00    0.120E-01
RMM:   2    -0.990940115444E+02   -0.44285E-03   -0.69880E-03    72   0.516E-01    0.757E-02
RMM:   3    -0.990941018865E+02   -0.90342E-04   -0.15722E-03    74   0.189E-01    0.338E-02
RMM:   4    -0.990941147615E+02   -0.12875E-04   -0.29334E-04    75   0.794E-02    0.127E-02
RMM:   5    -0.990941206864E+02   -0.59248E-05   -0.70386E-05    69   0.345E-02    0.651E-03
RMM:   6    -0.990941229292E+02   -0.22429E-05   -0.13371E-05    49   0.174E-02
     57 T=   361. E= -.98592786E+02 F= -.99094123E+02 E0= -.99096057E+02  EK= 0.70060E+00 SP= -.20E+00 SK= 0.30E-02
 bond charge predicted
 prediction of wavefunctions
       N       E                     dE             d eps       ncg     rms          rms(c)
RMM:   1    -0.990489967034E+02    0.45124E-01   -0.14795E-01    72   0.215E+00    0.144E-01
RMM:   2    -0.990495234187E+02   -0.52672E-03   -0.91403E-03    73   0.522E-01    0.939E-02
RMM:   3    -0.990496216606E+02   -0.98242E-04   -0.22716E-03    74   0.204E-01    0.373E-02
RMM:   4    -0.990496506912E+02   -0.29031E-04   -0.43593E-04    78   0.871E-02    0.218E-02
RMM:   5    -0.990496529424E+02   -0.22512E-05   -0.71932E-05    65   0.360E-02    0.521E-03
RMM:   6    -0.990496542831E+02   -0.13407E-05   -0.12402E-05    49   0.151E-02
     58 T=   345. E= -.98591739E+02 F= -.99049654E+02 E0= -.99051604E+02  EK= 0.66810E+00 SP= -.22E+00 SK= 0.75E-02
 bond charge predicted
 prediction of wavefunctions
       N       E                     dE             d eps       ncg     rms          rms(c)
RMM:   1    -0.990502168863E+02   -0.56394E-03   -0.81355E-02    72   0.155E+00    0.997E-02
RMM:   2    -0.990507348367E+02   -0.51795E-03   -0.71512E-03    74   0.411E-01    0.621E-02
RMM:   3    -0.990508615654E+02   -0.12673E-03   -0.17955E-03    77   0.164E-01    0.306E-02
RMM:   4    -0.990508868082E+02   -0.25243E-04   -0.30677E-04    79   0.645E-02    0.150E-02
RMM:   5    -0.990508896135E+02   -0.28054E-05   -0.27630E-05    55   0.246E-02    0.342E-03
RMM:   6    -0.990508920385E+02   -0.24250E-05   -0.67199E-06    48   0.122E-02
     59 T=   351. E= -.98597075E+02 F= -.99050892E+02 E0= -.99052891E+02  EK= 0.67984E+00 SP= -.24E+00 SK= 0.14E-01
Information: wavefunction orthogonal band   35  0.8920
Information: wavefunction orthogonal band   36  0.8925
 bond charge predicted
 prediction of wavefunctions
       N       E                     dE             d eps       ncg     rms          rms(c)
RMM:   1    -0.990289308084E+02    0.21959E-01   -0.90938E-02    72   0.179E+00    0.104E-01
RMM:   2    -0.990292237567E+02   -0.29295E-03   -0.46162E-03    72   0.426E-01    0.682E-02
RMM:   3    -0.990292611276E+02   -0.37371E-04   -0.90220E-04    74   0.156E-01    0.274E-02
RMM:   4    -0.990292705484E+02   -0.94208E-05   -0.16807E-04    76   0.609E-02    0.124E-02
RMM:   5    -0.990292733700E+02   -0.28216E-05   -0.29138E-05    55   0.262E-02    0.440E-03
RMM:   6    -0.990292752959E+02   -0.19259E-05   -0.67990E-06    48   0.122E-02
     60 T=   351. E= -.98596572E+02 F= -.99029275E+02 E0= -.99031340E+02  EK= 0.67984E+00 SP= -.27E+00 SK= 0.22E-01
 bond charge predicted
 prediction of wavefunctions
       N       E                     dE             d eps       ncg     rms          rms(c)
RMM:   1    -0.989871897454E+02    0.42084E-01   -0.13319E-01    72   0.208E+00    0.121E-01
RMM:   2    -0.989876658630E+02   -0.47612E-03   -0.71213E-03    72   0.506E-01    0.816E-02
RMM:   3    -0.989877237909E+02   -0.57928E-04   -0.15093E-03    75   0.185E-01    0.309E-02
RMM:   4    -0.989877305583E+02   -0.67674E-05   -0.20932E-04    75   0.703E-02    0.160E-02
RMM:   5    -0.989877332240E+02   -0.26657E-05   -0.51319E-05    64   0.320E-02    0.481E-03
RMM:   6    -0.989877353149E+02   -0.20909E-05   -0.87605E-06    48   0.143E-02
     61 T=   344. E= -.98593132E+02 F= -.98987735E+02 E0= -.98989783E+02  EK= 0.66721E+00 SP= -.31E+00 SK= 0.33E-01
 bond charge predicted
 prediction of wavefunctions
       N       E                     dE             d eps       ncg     rms          rms(c)
RMM:   1    -0.989708969486E+02    0.16836E-01   -0.87642E-02    72   0.165E+00    0.717E-02
RMM:   2    -0.989713264644E+02   -0.42952E-03   -0.50151E-03    72   0.422E-01    0.465E-02
RMM:   3    -0.989714310105E+02   -0.10455E-03   -0.11671E-03    76   0.149E-01    0.235E-02
RMM:   4    -0.989714391165E+02   -0.81061E-05   -0.14979E-04    75   0.582E-02    0.812E-03
RMM:   5    -0.989714420638E+02   -0.29473E-05   -0.33415E-05    57   0.248E-02    0.389E-03
RMM:   6    -0.989714434319E+02   -0.13681E-05   -0.54435E-06    48   0.108E-02
     62 T=   351. E= -.98593651E+02 F= -.98971443E+02 E0= -.98973399E+02  EK= 0.68068E+00 SP= -.35E+00 SK= 0.46E-01
 bond charge predicted
 prediction of wavefunctions
       N       E                     dE             d eps       ncg     rms          rms(c)
RMM:   1    -0.989780836188E+02   -0.66416E-02   -0.76360E-02    72   0.159E+00    0.703E-02
RMM:   2    -0.989784159922E+02   -0.33237E-03   -0.41270E-03    72   0.410E-01    0.434E-02
RMM:   3    -0.989784881588E+02   -0.72167E-04   -0.81442E-04    74   0.147E-01    0.232E-02
RMM:   4    -0.989784986746E+02   -0.10516E-04   -0.14480E-04    73   0.583E-02    0.106E-02
RMM:   5    -0.989785030008E+02   -0.43263E-05   -0.37702E-05    60   0.267E-02    0.410E-03
RMM:   6    -0.989785039905E+02   -0.98963E-06   -0.77005E-06    48   0.122E-02
     63 T=   373. E= -.98595260E+02 F= -.98978504E+02 E0= -.98980437E+02  EK= 0.72277E+00 SP= -.40E+00 SK= 0.59E-01
 bond charge predicted
 prediction of wavefunctions
       N       E                     dE             d eps       ncg     rms          rms(c)
RMM:   1    -0.989890929547E+02   -0.10590E-01   -0.10337E-01    72   0.182E+00    0.972E-02
RMM:   2    -0.989894603154E+02   -0.36736E-03   -0.56710E-03    72   0.484E-01    0.586E-02
RMM:   3    -0.989895401958E+02   -0.79880E-04   -0.12629E-03    76   0.178E-01    0.290E-02
RMM:   4    -0.989895488113E+02   -0.86155E-05   -0.16686E-04    72   0.629E-02    0.151E-02
RMM:   5    -0.989895564900E+02   -0.76787E-05   -0.48097E-05    63   0.316E-02    0.585E-03
RMM:   6    -0.989895598631E+02   -0.33731E-05   -0.14836E-05    50   0.172E-02
     64 T=   401. E= -.98595450E+02 F= -.98989560E+02 E0= -.98991492E+02  EK= 0.77743E+00 SP= -.45E+00 SK= 0.71E-01
 bond charge predicted
 prediction of wavefunctions
       N       E                     dE             d eps       ncg     rms          rms(c)
RMM:   1    -0.990018554653E+02   -0.12299E-01   -0.11069E-01    72   0.190E+00    0.102E-01
RMM:   2    -0.990022565133E+02   -0.40105E-03   -0.61444E-03    72   0.495E-01    0.639E-02
RMM:   3    -0.990023160193E+02   -0.59506E-04   -0.13617E-03    75   0.179E-01    0.270E-02
RMM:   4    -0.990023291307E+02   -0.13111E-04   -0.19390E-04    75   0.678E-02    0.148E-02
RMM:   5    -0.990023371560E+02   -0.80254E-05   -0.46510E-05    62   0.306E-02    0.626E-03
RMM:   6    -0.990023428361E+02   -0.56800E-05   -0.87538E-06    48   0.139E-02
     65 T=   433. E= -.98596661E+02 F= -.99002343E+02 E0= -.99004275E+02  EK= 0.83994E+00 SP= -.51E+00 SK= 0.80E-01
 bond charge predicted
 prediction of wavefunctions
       N       E                     dE             d eps       ncg     rms          rms(c)
RMM:   1    -0.990066659131E+02   -0.43288E-02   -0.10306E-01    72   0.184E+00    0.103E-01
RMM:   2    -0.990070800993E+02   -0.41419E-03   -0.61033E-03    72   0.464E-01    0.676E-02
RMM:   3    -0.990071481387E+02   -0.68039E-04   -0.13838E-03    75   0.170E-01    0.307E-02
RMM:   4    -0.990071572859E+02   -0.91472E-05   -0.22694E-04    75   0.692E-02    0.123E-02
RMM:   5    -0.990071635992E+02   -0.63132E-05   -0.54303E-05    62   0.303E-02    0.588E-03
RMM:   6    -0.990071683982E+02   -0.47990E-05   -0.88791E-06    48   0.141E-02
     66 T=   464. E= -.98599208E+02 F= -.99007168E+02 E0= -.99009101E+02  EK= 0.89987E+00 SP= -.58E+00 SK= 0.86E-01
 bond charge predicted
 prediction of wavefunctions
       N       E                     dE             d eps       ncg     rms          rms(c)
RMM:   1    -0.989826144995E+02    0.24549E-01   -0.11929E-01    72   0.193E+00    0.126E-01
RMM:   2    -0.989830224314E+02   -0.40793E-03   -0.67523E-03    72   0.482E-01    0.845E-02
RMM:   3    -0.989830741184E+02   -0.51687E-04   -0.14329E-03    73   0.180E-01    0.272E-02
RMM:   4    -0.989830931058E+02   -0.18987E-04   -0.33300E-04    75   0.750E-02    0.154E-02
RMM:   5    -0.989830948925E+02   -0.17867E-05   -0.58632E-05    62   0.315E-02    0.571E-03
RMM:   6    -0.989830952383E+02   -0.34584E-06   -0.88002E-06    48   0.140E-02
     67 T=   484. E= -.98598997E+02 F= -.98983095E+02 E0= -.98985028E+02  EK= 0.93843E+00 SP= -.64E+00 SK= 0.88E-01
 bond charge predicted
 prediction of wavefunctions
       N       E                     dE             d eps       ncg     rms          rms(c)
RMM:   1    -0.989494564144E+02    0.33638E-01   -0.17413E-01    72   0.231E+00    0.162E-01
RMM:   2    -0.989499549734E+02   -0.49856E-03   -0.98066E-03    72   0.584E-01    0.108E-01
RMM:   3    -0.989499861689E+02   -0.31196E-04   -0.20846E-03    72   0.220E-01    0.345E-02
RMM:   4    -0.989500096171E+02   -0.23448E-04   -0.44183E-04    75   0.897E-02    0.215E-02
RMM:   5    -0.989500102243E+02   -0.60718E-06   -0.77937E-05    68   0.384E-02    0.637E-03
RMM:   6    -0.989500103991E+02   -0.17479E-06   -0.16599E-05    51   0.173E-02
     68 T=   502. E= -.98595331E+02 F= -.98950010E+02 E0= -.98951943E+02  EK= 0.97369E+00 SP= -.71E+00 SK= 0.88E-01
 bond charge predicted
 prediction of wavefunctions
       N       E                     dE             d eps       ncg     rms          rms(c)
RMM:   1    -0.989601945064E+02   -0.10184E-01   -0.20014E-01    72   0.259E+00    0.172E-01
RMM:   2    -0.989607959738E+02   -0.60147E-03   -0.11693E-02    72   0.635E-01    0.113E-01
RMM:   3    -0.989608752887E+02   -0.79315E-04   -0.25662E-03    72   0.245E-01    0.458E-02
RMM:   4    -0.989609120964E+02   -0.36808E-04   -0.54102E-04    76   0.104E-01    0.255E-02
RMM:   5    -0.989609213582E+02   -0.92618E-05   -0.11589E-04    70   0.458E-02    0.774E-03
RMM:   6    -0.989609224482E+02   -0.10900E-05   -0.19208E-05    51   0.206E-02
     69 T=   542. E= -.98596617E+02 F= -.98960922E+02 E0= -.98962855E+02  EK= 0.10507E+01 SP= -.77E+00 SK= 0.84E-01
 bond charge predicted
 prediction of wavefunctions
       N       E                     dE             d eps       ncg     rms          rms(c)
RMM:   1    -0.989966283020E+02   -0.35707E-01   -0.15625E-01    72   0.235E+00    0.135E-01
RMM:   2    -0.989972693222E+02   -0.64102E-03   -0.94714E-03    72   0.566E-01    0.898E-02
RMM:   3    -0.989973950492E+02   -0.12573E-03   -0.22257E-03    75   0.222E-01    0.372E-02
RMM:   4    -0.989974308799E+02   -0.35831E-04   -0.47211E-04    75   0.934E-02    0.224E-02
RMM:   5    -0.989974382464E+02   -0.73664E-05   -0.87653E-05    70   0.412E-02    0.652E-03
RMM:   6    -0.989974411522E+02   -0.29058E-05   -0.21017E-05    53   0.193E-02
     70 T=   595. E= -.98601190E+02 F= -.98997441E+02 E0= -.98999374E+02  EK= 0.11539E+01 SP= -.83E+00 SK= 0.75E-01
 bond charge predicted
 prediction of wavefunctions
       N       E                     dE             d eps       ncg     rms          rms(c)
RMM:   1    -0.990013707725E+02   -0.39325E-02   -0.18033E-01    72   0.245E+00    0.150E-01
RMM:   2    -0.990021490731E+02   -0.77830E-03   -0.11146E-02    73   0.555E-01    0.100E-01
RMM:   3    -0.990022939677E+02   -0.14489E-03   -0.27064E-03    74   0.214E-01    0.356E-02
RMM:   4    -0.990023288681E+02   -0.34900E-04   -0.51811E-04    79   0.882E-02    0.226E-02
RMM:   5    -0.990023293342E+02   -0.46617E-06   -0.63143E-05    63   0.353E-02    0.557E-03
RMM:   6    -0.990023312525E+02   -0.19183E-05   -0.15179E-05    50   0.172E-02
     71 T=   634. E= -.98601472E+02 F= -.99002331E+02 E0= -.99004264E+02  EK= 0.12297E+01 SP= -.89E+00 SK= 0.60E-01
Information: wavefunction orthogonal band   36  0.8747
 bond charge predicted
 prediction of wavefunctions
       N       E                     dE             d eps       ncg     rms          rms(c)
RMM:   1    -0.989779447818E+02    0.24385E-01   -0.17177E-01    72   0.232E+00    0.144E-01
RMM:   2    -0.989785987841E+02   -0.65400E-03   -0.10060E-02    73   0.555E-01    0.885E-02
RMM:   3    -0.989787265569E+02   -0.12777E-03   -0.21506E-03    74   0.206E-01    0.370E-02
RMM:   4    -0.989787586763E+02   -0.32119E-04   -0.45752E-04    76   0.858E-02    0.162E-02
RMM:   5    -0.989787682285E+02   -0.95522E-05   -0.82204E-05    67   0.350E-02    0.658E-03
RMM:   6    -0.989787727965E+02   -0.45680E-05   -0.13262E-05    50   0.161E-02
     72 T=   657. E= -.98599249E+02 F= -.98978773E+02 E0= -.98980705E+02  EK= 0.12738E+01 SP= -.94E+00 SK= 0.45E-01
 bond charge predicted
 prediction of wavefunctions
       N       E                     dE             d eps       ncg     rms          rms(c)
RMM:   1    -0.989642711670E+02    0.14497E-01   -0.14715E-01    72   0.225E+00    0.119E-01
RMM:   2    -0.989649150460E+02   -0.64388E-03   -0.85349E-03    72   0.545E-01    0.714E-02
RMM:   3    -0.989650814151E+02   -0.16637E-03   -0.19799E-03    76   0.208E-01    0.377E-02
RMM:   4    -0.989651151658E+02   -0.33751E-04   -0.41352E-04    75   0.837E-02    0.174E-02
RMM:   5    -0.989651286923E+02   -0.13527E-04   -0.77746E-05    65   0.385E-02    0.600E-03
RMM:   6    -0.989651350289E+02   -0.63365E-05   -0.19137E-05    50   0.196E-02
     73 T=   679. E= -.98599024E+02 F= -.98965135E+02 E0= -.98967068E+02  EK= 0.13170E+01 SP= -.98E+00 SK= 0.30E-01
Information: wavefunction orthogonal band   35  0.8761
 bond charge predicted
 prediction of wavefunctions
       N       E                     dE             d eps       ncg     rms          rms(c)
RMM:   1    -0.989697797505E+02   -0.46511E-02   -0.10652E-01    72   0.201E+00    0.943E-02
RMM:   2    -0.989702825330E+02   -0.50278E-03   -0.60749E-03    72   0.478E-01    0.587E-02
RMM:   3    -0.989704009475E+02   -0.11841E-03   -0.13604E-03    76   0.179E-01    0.307E-02
RMM:   4    -0.989704250952E+02   -0.24148E-04   -0.30084E-04    79   0.746E-02    0.129E-02
RMM:   5    -0.989704298182E+02   -0.47230E-05   -0.33515E-05    58   0.283E-02    0.519E-03
RMM:   6    -0.989704330340E+02   -0.32158E-05   -0.86588E-06    48   0.136E-02
     74 T=   705. E= -.98601490E+02 F= -.98970433E+02 E0= -.98972366E+02  EK= 0.13661E+01 SP= -.10E+01 SK= 0.17E-01
 bond charge predicted
 prediction of wavefunctions
       N       E                     dE             d eps       ncg     rms          rms(c)
RMM:   1    -0.989643146793E+02    0.61151E-02   -0.99450E-02    72   0.184E+00    0.972E-02
RMM:   2    -0.989647577841E+02   -0.44310E-03   -0.59451E-03    72   0.458E-01    0.642E-02
RMM:   3    -0.989648294693E+02   -0.71685E-04   -0.13855E-03    78   0.172E-01    0.284E-02
RMM:   4    -0.989648476396E+02   -0.18170E-04   -0.25837E-04    78   0.694E-02    0.153E-02
RMM:   5    -0.989648506578E+02   -0.30182E-05   -0.29897E-05    57   0.261E-02    0.700E-03
RMM:   6    -0.989648526960E+02   -0.20382E-05   -0.75587E-06    48   0.127E-02
     75 T=   717. E= -.98604607E+02 F= -.98964853E+02 E0= -.98966785E+02  EK= 0.13903E+01 SP= -.10E+01 SK= 0.63E-02
 bond charge predicted
 prediction of wavefunctions
       N       E                     dE             d eps       ncg     rms          rms(c)
RMM:   1    -0.989088606121E+02    0.55990E-01   -0.12836E-01    72   0.203E+00    0.119E-01
RMM:   2    -0.989093826939E+02   -0.52208E-03   -0.79632E-03    72   0.498E-01    0.812E-02
RMM:   3    -0.989094082422E+02   -0.25548E-04   -0.17807E-03    75   0.187E-01    0.311E-02
RMM:   4    -0.989094347152E+02   -0.26473E-04   -0.32587E-04    76   0.773E-02    0.202E-02
RMM:   5    -0.989094403069E+02   -0.55917E-05   -0.62067E-05    65   0.334E-02    0.762E-03
RMM:   6    -0.989094421505E+02   -0.18436E-05   -0.10925E-05    49   0.148E-02
     76 T=   696. E= -.98606617E+02 F= -.98909442E+02 E0= -.98911375E+02  EK= 0.13503E+01 SP= -.10E+01 SK= 0.92E-03
 bond charge predicted
 prediction of wavefunctions
       N       E                     dE             d eps       ncg     rms          rms(c)
RMM:   1    -0.987852217447E+02    0.12422E+00   -0.15349E-01    72   0.228E+00    0.135E-01
RMM:   2    -0.987858344059E+02   -0.61266E-03   -0.94684E-03    72   0.563E-01    0.922E-02
RMM:   3    -0.987858624096E+02   -0.28004E-04   -0.20051E-03    75   0.214E-01    0.369E-02
RMM:   4    -0.987858994056E+02   -0.36996E-04   -0.43476E-04    76   0.851E-02    0.221E-02
RMM:   5    -0.987859078957E+02   -0.84900E-05   -0.72602E-05    64   0.376E-02    0.767E-03
RMM:   6    -0.987859115736E+02   -0.36780E-05   -0.15823E-05    50   0.178E-02
     77 T=   636. E= -.98604192E+02 F= -.98785912E+02 E0= -.98787844E+02  EK= 0.12323E+01 SP= -.11E+01 SK= 0.94E-04
 bond charge predicted
 prediction of wavefunctions
       N       E                     dE             d eps       ncg     rms          rms(c)
RMM:   1    -0.986383865572E+02    0.14752E+00   -0.18929E-01    72   0.249E+00    0.155E-01
RMM:   2    -0.986391187497E+02   -0.73219E-03   -0.11073E-02    72   0.640E-01    0.107E-01
RMM:   3    -0.986391894318E+02   -0.70682E-04   -0.23392E-03    74   0.244E-01    0.376E-02
RMM:   4    -0.986392180247E+02   -0.28593E-04   -0.42654E-04    77   0.925E-02    0.210E-02
RMM:   5    -0.986392243888E+02   -0.63641E-05   -0.81612E-05    66   0.416E-02    0.697E-03
RMM:   6    -0.986392272828E+02   -0.28940E-05   -0.14639E-05    49   0.178E-02
     78 T=   561. E= -.98597166E+02 F= -.98639227E+02 E0= -.98641160E+02  EK= 0.10870E+01 SP= -.10E+01 SK= 0.11E-02
 bond charge predicted
 prediction of wavefunctions
       N       E                     dE             d eps       ncg     rms          rms(c)
RMM:   1    -0.985737689104E+02    0.65455E-01   -0.23558E-01    72   0.278E+00    0.195E-01
RMM:   2    -0.985743343595E+02   -0.56545E-03   -0.12716E-02    72   0.693E-01    0.127E-01
RMM:   3    -0.985743828845E+02   -0.48525E-04   -0.26833E-03    73   0.263E-01    0.490E-02
RMM:   4    -0.985744037881E+02   -0.20904E-04   -0.44480E-04    75   0.107E-01    0.222E-02
RMM:   5    -0.985744144749E+02   -0.10687E-04   -0.12105E-04    71   0.492E-02    0.800E-03
RMM:   6    -0.985744160877E+02   -0.16128E-05   -0.21354E-05    50   0.215E-02
     79 T=   523. E= -.98595512E+02 F= -.98574416E+02 E0= -.98576349E+02  EK= 0.10149E+01 SP= -.10E+01 SK= 0.18E-02
 bond charge predicted
 prediction of wavefunctions
       N       E                     dE             d eps       ncg     rms          rms(c)
RMM:   1    -0.986104925178E+02   -0.36078E-01   -0.16496E-01    72   0.234E+00    0.156E-01
RMM:   2    -0.986109279089E+02   -0.43539E-03   -0.91183E-03    72   0.565E-01    0.102E-01
RMM:   3    -0.986110087334E+02   -0.80825E-04   -0.23175E-03    75   0.217E-01    0.415E-02
RMM:   4    -0.986110272816E+02   -0.18548E-04   -0.36889E-04    76   0.884E-02    0.228E-02
RMM:   5    -0.986110318185E+02   -0.45369E-05   -0.83026E-05    68   0.401E-02    0.732E-03
RMM:   6    -0.986110315950E+02    0.22353E-06   -0.16488E-05    50   0.188E-02
     80 T=   532. E= -.98604158E+02 F= -.98611032E+02 E0= -.98612964E+02  EK= 0.10321E+01 SP= -.10E+01 SK= 0.25E-02
 bond charge predicted
 prediction of wavefunctions
       N       E                     dE             d eps       ncg     rms          rms(c)
RMM:   1    -0.986283626021E+02   -0.17331E-01   -0.13871E-01    72   0.217E+00    0.113E-01
RMM:   2    -0.986290186372E+02   -0.65604E-03   -0.86146E-03    73   0.536E-01    0.758E-02
RMM:   3    -0.986291670936E+02   -0.14846E-03   -0.22144E-03    77   0.204E-01    0.313E-02
RMM:   4    -0.986291860125E+02   -0.18919E-04   -0.29055E-04    76   0.791E-02    0.186E-02
RMM:   5    -0.986291943839E+02   -0.83714E-05   -0.72268E-05    67   0.352E-02    0.565E-03
RMM:   6    -0.986291972609E+02   -0.28770E-05   -0.10076E-05    48   0.157E-02
     81 T=   534. E= -.98605950E+02 F= -.98629197E+02 E0= -.98631130E+02  EK= 0.10352E+01 SP= -.10E+01 SK= 0.37E-02
 bond charge predicted
 prediction of wavefunctions
       N       E                     dE             d eps       ncg     rms          rms(c)
RMM:   1    -0.985882347485E+02    0.40960E-01   -0.20079E-01    72   0.256E+00    0.146E-01
RMM:   2    -0.985890779746E+02   -0.84323E-03   -0.11872E-02    73   0.629E-01    0.958E-02
RMM:   3    -0.985892221453E+02   -0.14417E-03   -0.24569E-03    73   0.234E-01    0.397E-02
RMM:   4    -0.985892681525E+02   -0.46007E-04   -0.59530E-04    79   0.981E-02    0.215E-02
RMM:   5    -0.985892748222E+02   -0.66697E-05   -0.65503E-05    65   0.372E-02    0.658E-03
RMM:   6    -0.985892789629E+02   -0.41407E-05   -0.16393E-05    50   0.181E-02
     82 T=   509. E= -.98599374E+02 F= -.98589279E+02 E0= -.98591212E+02  EK= 0.98696E+00 SP= -.10E+01 SK= 0.46E-02
Information: wavefunction orthogonal band   34  0.8923
 bond charge predicted
 prediction of wavefunctions
       N       E                     dE             d eps       ncg     rms          rms(c)
RMM:   1    -0.985738302955E+02    0.15445E-01   -0.14725E-01    72   0.219E+00    0.112E-01
RMM:   2    -0.985744447958E+02   -0.61450E-03   -0.81355E-03    72   0.546E-01    0.719E-02
RMM:   3    -0.985745834748E+02   -0.13868E-03   -0.18042E-03    77   0.195E-01    0.331E-02
RMM:   4    -0.985745974897E+02   -0.14015E-04   -0.25915E-04    74   0.761E-02    0.147E-02
RMM:   5    -0.985746025566E+02   -0.50669E-05   -0.58808E-05    62   0.333E-02    0.518E-03
RMM:   6    -0.985746045599E+02   -0.20033E-05   -0.10229E-05    48   0.150E-02
     83 T=   496. E= -.98595656E+02 F= -.98574605E+02 E0= -.98576537E+02  EK= 0.96098E+00 SP= -.99E+00 SK= 0.47E-02
 bond charge predicted
 prediction of wavefunctions
       N       E                     dE             d eps       ncg     rms          rms(c)
RMM:   1    -0.986393258945E+02   -0.64723E-01   -0.79980E-02    72   0.168E+00    0.739E-02
RMM:   2    -0.986398011540E+02   -0.47526E-03   -0.51569E-03    73   0.407E-01    0.472E-02
RMM:   3    -0.986399193688E+02   -0.11821E-03   -0.11931E-03    77   0.150E-01    0.243E-02
RMM:   4    -0.986399435446E+02   -0.24176E-04   -0.24862E-04    73   0.612E-02    0.720E-03
RMM:   5    -0.986399489812E+02   -0.54366E-05   -0.43449E-05    58   0.266E-02    0.451E-03
RMM:   6    -0.986399513811E+02   -0.23999E-05   -0.59093E-06    48   0.118E-02
     84 T=   520. E= -.98598866E+02 F= -.98639951E+02 E0= -.98641884E+02  EK= 0.10076E+01 SP= -.97E+00 SK= 0.50E-02
 bond charge predicted
 prediction of wavefunctions
       N       E                     dE             d eps       ncg     rms          rms(c)
RMM:   1    -0.987401026632E+02   -0.10015E+00   -0.65895E-02    72   0.153E+00    0.711E-02
RMM:   2    -0.987405326488E+02   -0.42999E-03   -0.46654E-03    74   0.367E-01    0.466E-02
RMM:   3    -0.987406262848E+02   -0.93636E-04   -0.10289E-03    76   0.137E-01    0.237E-02
RMM:   4    -0.987406459657E+02   -0.19681E-04   -0.21226E-04    73   0.564E-02    0.897E-03
RMM:   5    -0.987406489102E+02   -0.29445E-05   -0.27192E-05    56   0.229E-02    0.463E-03
RMM:   6    -0.987406505640E+02   -0.16538E-05   -0.53640E-06    47   0.108E-02
     85 T=   559. E= -.98605080E+02 F= -.98740651E+02 E0= -.98742583E+02  EK= 0.10839E+01 SP= -.95E+00 SK= 0.66E-02
 bond charge predicted
 prediction of wavefunctions
       N       E                     dE             d eps       ncg     rms          rms(c)
RMM:   1    -0.987866306931E+02   -0.45982E-01   -0.97265E-02    72   0.183E+00    0.999E-02
RMM:   2    -0.987871831531E+02   -0.55246E-03   -0.67559E-03    72   0.446E-01    0.637E-02
RMM:   3    -0.987873269529E+02   -0.14380E-03   -0.18274E-03    78   0.173E-01    0.308E-02
RMM:   4    -0.987873480710E+02   -0.21118E-04   -0.25863E-04    76   0.706E-02    0.133E-02
RMM:   5    -0.987873526375E+02   -0.45665E-05   -0.42385E-05    58   0.289E-02    0.597E-03
RMM:   6    -0.987873545365E+02   -0.18990E-05   -0.88452E-06    49   0.127E-02
     86 T=   570. E= -.98607042E+02 F= -.98787355E+02 E0= -.98789287E+02  EK= 0.11057E+01 SP= -.94E+00 SK= 0.98E-02
 bond charge predicted
 prediction of wavefunctions
       N       E                     dE             d eps       ncg     rms          rms(c)
RMM:   1    -0.987482683514E+02    0.39084E-01   -0.16326E-01    72   0.236E+00    0.143E-01
RMM:   2    -0.987489619646E+02   -0.69361E-03   -0.10328E-02    72   0.583E-01    0.938E-02
RMM:   3    -0.987490986649E+02   -0.13670E-03   -0.29150E-03    76   0.234E-01    0.387E-02
RMM:   4    -0.987491259899E+02   -0.27325E-04   -0.37910E-04    77   0.849E-02    0.233E-02
RMM:   5    -0.987491321654E+02   -0.61756E-05   -0.61700E-05    65   0.391E-02    0.525E-03
RMM:   6    -0.987491354525E+02   -0.32871E-05   -0.16737E-05    50   0.193E-02
     87 T=   539. E= -.98603196E+02 F= -.98749135E+02 E0= -.98751068E+02  EK= 0.10447E+01 SP= -.91E+00 SK= 0.13E-01
 bond charge predicted
 prediction of wavefunctions
       N       E                     dE             d eps       ncg     rms          rms(c)
RMM:   1    -0.986747120831E+02    0.74420E-01   -0.17564E-01    72   0.244E+00    0.151E-01
RMM:   2    -0.986755186221E+02   -0.80654E-03   -0.11206E-02    72   0.583E-01    0.103E-01
RMM:   3    -0.986756333565E+02   -0.11473E-03   -0.27674E-03    76   0.228E-01    0.358E-02
RMM:   4    -0.986756668385E+02   -0.33482E-04   -0.42397E-04    76   0.846E-02    0.195E-02
RMM:   5    -0.986756753975E+02   -0.85591E-05   -0.74212E-05    64   0.394E-02    0.548E-03
RMM:   6    -0.986756797692E+02   -0.43717E-05   -0.14022E-05    49   0.178E-02
     88 T=   489. E= -.98599861E+02 F= -.98675680E+02 E0= -.98677612E+02  EK= 0.94775E+00 SP= -.89E+00 SK= 0.14E-01
Information: wavefunction orthogonal band   36  0.8614
 bond charge predicted
 prediction of wavefunctions
       N       E                     dE             d eps       ncg     rms          rms(c)
RMM:   1    -0.986158312894E+02    0.59844E-01   -0.15525E-01    72   0.222E+00    0.159E-01
RMM:   2    -0.986162965006E+02   -0.46521E-03   -0.81176E-03    72   0.512E-01    0.109E-01
RMM:   3    -0.986163488853E+02   -0.52385E-04   -0.19271E-03    73   0.203E-01    0.273E-02
RMM:   4    -0.986163577234E+02   -0.88381E-05   -0.30627E-04    74   0.792E-02    0.189E-02
RMM:   5    -0.986163564000E+02    0.13234E-05   -0.55342E-05    63   0.354E-02    0.515E-03
RMM:   6    -0.986163572263E+02   -0.82625E-06   -0.12011E-05    47   0.165E-02
     89 T=   447. E= -.98598306E+02 F= -.98616357E+02 E0= -.98618290E+02  EK= 0.86577E+00 SP= -.86E+00 SK= 0.13E-01
 bond charge predicted
 prediction of wavefunctions
       N       E                     dE             d eps       ncg     rms          rms(c)
RMM:   1    -0.985917761167E+02    0.24580E-01   -0.20230E-01    72   0.250E+00    0.202E-01
RMM:   2    -0.985922005440E+02   -0.42443E-03   -0.10762E-02    72   0.571E-01    0.134E-01
RMM:   3    -0.985922560615E+02   -0.55518E-04   -0.29441E-03    72   0.244E-01    0.425E-02
RMM:   4    -0.985922620197E+02   -0.59581E-05   -0.59969E-04    74   0.995E-02    0.307E-02
RMM:   5    -0.985922631775E+02   -0.11578E-05   -0.89084E-05    69   0.468E-02    0.823E-03
RMM:   6    -0.985922657334E+02   -0.25559E-05   -0.21339E-05    52   0.217E-02
     90 T=   423. E= -.98598907E+02 F= -.98592266E+02 E0= -.98594198E+02  EK= 0.82042E+00 SP= -.84E+00 SK= 0.10E-01
 bond charge predicted
[...]
 bond charge predicted
 prediction of wavefunctions
       N       E                     dE             d eps       ncg     rms          rms(c)
RMM:   1    -0.985556439281E+02   -0.61574E-01   -0.16831E-01    72   0.240E+00    0.157E-01
RMM:   2    -0.985562382144E+02   -0.59429E-03   -0.95924E-03    72   0.524E-01    0.101E-01
RMM:   3    -0.985564343821E+02   -0.19617E-03   -0.29204E-03    77   0.212E-01    0.453E-02
RMM:   4    -0.985564518231E+02   -0.17441E-04   -0.37308E-04    75   0.806E-02    0.236E-02
RMM:   5    -0.985564579687E+02   -0.61456E-05   -0.62350E-05    67   0.382E-02    0.624E-03
RMM:   6    -0.985564598726E+02   -0.19039E-05   -0.14765E-05    48   0.172E-02
    262 T=   582. E= -.98611099E+02 F= -.98556460E+02 E0= -.98558393E+02  EK= 0.11289E+01 SP= -.12E+01 SK= 0.10E-02
 bond charge predicted
 prediction of wavefunctions
       N       E                     dE             d eps       ncg     rms          rms(c)
RMM:   1    -0.985700175787E+02   -0.13560E-01   -0.15668E-01    72   0.218E+00    0.136E-01
RMM:   2    -0.985708197916E+02   -0.80221E-03   -0.10578E-02    74   0.538E-01    0.861E-02
RMM:   3    -0.985709837130E+02   -0.16392E-03   -0.23649E-03    75   0.207E-01    0.379E-02
RMM:   4    -0.985710204599E+02   -0.36747E-04   -0.43224E-04    80   0.857E-02    0.168E-02
RMM:   5    -0.985710280748E+02   -0.76149E-05   -0.61590E-05    62   0.319E-02    0.632E-03
RMM:   6    -0.985710312366E+02   -0.31618E-05   -0.85962E-06    47   0.141E-02
    263 T=   594. E= -.98609074E+02 F= -.98571031E+02 E0= -.98572964E+02  EK= 0.11510E+01 SP= -.12E+01 SK= 0.90E-04
 bond charge predicted
 prediction of wavefunctions
       N       E                     dE             d eps       ncg     rms          rms(c)
RMM:   1    -0.985692149064E+02    0.18132E-02   -0.18934E-01    72   0.247E+00    0.170E-01
RMM:   2    -0.985701830656E+02   -0.96816E-03   -0.14211E-02    73   0.617E-01    0.105E-01
RMM:   3    -0.985704213317E+02   -0.23827E-03   -0.37172E-03    75   0.253E-01    0.493E-02
RMM:   4    -0.985704592111E+02   -0.37879E-04   -0.58395E-04    75   0.105E-01    0.222E-02
RMM:   5    -0.985704745982E+02   -0.15387E-04   -0.14273E-04    72   0.473E-02    0.842E-03
RMM:   6    -0.985704782431E+02   -0.36450E-05   -0.22263E-05    52   0.212E-02
    264 T=   595. E= -.98604825E+02 F= -.98570478E+02 E0= -.98572411E+02  EK= 0.11542E+01 SP= -.12E+01 SK= 0.17E-03
Information: wavefunction orthogonal band   36  0.8900
 bond charge predicted
 prediction of wavefunctions
       N       E                     dE             d eps       ncg     rms          rms(c)
RMM:   1    -0.986125434169E+02   -0.42069E-01   -0.14382E-01    72   0.227E+00    0.149E-01
RMM:   2    -0.986131652448E+02   -0.62183E-03   -0.95358E-03    73   0.546E-01    0.951E-02
RMM:   3    -0.986133103522E+02   -0.14511E-03   -0.24009E-03    75   0.224E-01    0.401E-02
RMM:   4    -0.986133499707E+02   -0.39618E-04   -0.49132E-04    76   0.920E-02    0.215E-02
RMM:   5    -0.986133648364E+02   -0.14866E-04   -0.80918E-05    67   0.397E-02    0.704E-03
RMM:   6    -0.986133694758E+02   -0.46394E-05   -0.20876E-05    52   0.208E-02
    265 T=   613. E= -.98605960E+02 F= -.98613369E+02 E0= -.98615302E+02  EK= 0.11892E+01 SP= -.12E+01 SK= 0.14E-02
 bond charge predicted
 prediction of wavefunctions
       N       E                     dE             d eps       ncg     rms          rms(c)
RMM:   1    -0.986800204931E+02   -0.66656E-01   -0.11470E-01    72   0.197E+00    0.117E-01
RMM:   2    -0.986808830286E+02   -0.86254E-03   -0.10116E-02    74   0.473E-01    0.784E-02
RMM:   3    -0.986810981715E+02   -0.21514E-03   -0.25082E-03    78   0.196E-01    0.350E-02
RMM:   4    -0.986811292792E+02   -0.31108E-04   -0.35379E-04    77   0.779E-02    0.164E-02
RMM:   5    -0.986811359358E+02   -0.66566E-05   -0.49546E-05    61   0.323E-02    0.440E-03
RMM:   6    -0.986811377995E+02   -0.18638E-05   -0.97558E-06    47   0.147E-02
    266 T=   638. E= -.98611524E+02 F= -.98681138E+02 E0= -.98683070E+02  EK= 0.12368E+01 SP= -.12E+01 SK= 0.46E-02
 bond charge predicted
 prediction of wavefunctions
       N       E                     dE             d eps       ncg     rms          rms(c)
RMM:   1    -0.986916536759E+02   -0.10518E-01   -0.12954E-01    72   0.206E+00    0.120E-01
RMM:   2    -0.986926859512E+02   -0.10323E-02   -0.11852E-02    75   0.479E-01    0.823E-02
RMM:   3    -0.986929013644E+02   -0.21541E-03   -0.26202E-03    76   0.194E-01    0.389E-02
RMM:   4    -0.986929307953E+02   -0.29431E-04   -0.32205E-04    79   0.781E-02    0.123E-02
RMM:   5    -0.986929378355E+02   -0.70402E-05   -0.57101E-05    59   0.318E-02    0.540E-03
RMM:   6    -0.986929407563E+02   -0.29208E-05   -0.70514E-06    48   0.129E-02
    267 T=   631. E= -.98613058E+02 F= -.98692941E+02 E0= -.98694873E+02  EK= 0.12229E+01 SP= -.12E+01 SK= 0.10E-01
 bond charge predicted
 prediction of wavefunctions
       N       E                     dE             d eps       ncg     rms          rms(c)
RMM:   1    -0.986195341278E+02    0.73404E-01   -0.13318E-01    72   0.210E+00    0.120E-01
RMM:   2    -0.986202022387E+02   -0.66811E-03   -0.87146E-03    72   0.510E-01    0.768E-02
RMM:   3    -0.986204111448E+02   -0.20891E-03   -0.26340E-03    78   0.206E-01    0.380E-02
RMM:   4    -0.986204332236E+02   -0.22079E-04   -0.31117E-04    76   0.774E-02    0.187E-02
RMM:   5    -0.986204404134E+02   -0.71898E-05   -0.55243E-05    63   0.356E-02    0.478E-03
RMM:   6    -0.986204434213E+02   -0.30078E-05   -0.11950E-05    47   0.169E-02
    268 T=   580. E= -.98607080E+02 F= -.98620443E+02 E0= -.98622376E+02  EK= 0.11252E+01 SP= -.11E+01 SK= 0.16E-01
 bond charge predicted
 prediction of wavefunctions
       N       E                     dE             d eps       ncg     rms          rms(c)
RMM:   1    -0.985443327795E+02    0.76108E-01   -0.17953E-01    72   0.229E+00    0.153E-01
RMM:   2    -0.985452394920E+02   -0.90671E-03   -0.12792E-02    73   0.590E-01    0.102E-01
RMM:   3    -0.985453233528E+02   -0.83861E-04   -0.24395E-03    74   0.228E-01    0.399E-02
RMM:   4    -0.985453685048E+02   -0.45152E-04   -0.59628E-04    81   0.981E-02    0.225E-02
RMM:   5    -0.985453720792E+02   -0.35744E-05   -0.55955E-05    61   0.360E-02    0.697E-03
RMM:   6    -0.985453741565E+02   -0.20773E-05   -0.13647E-05    48   0.177E-02
    269 T=   529. E= -.98598496E+02 F= -.98545374E+02 E0= -.98547307E+02  EK= 0.10259E+01 SP= -.11E+01 SK= 0.20E-01
 bond charge predicted
 prediction of wavefunctions
       N       E                     dE             d eps       ncg     rms          rms(c)
RMM:   1    -0.985847938874E+02   -0.39422E-01   -0.16604E-01    72   0.228E+00    0.159E-01
RMM:   2    -0.985856774986E+02   -0.88361E-03   -0.11762E-02    73   0.546E-01    0.107E-01
RMM:   3    -0.985858002489E+02   -0.12275E-03   -0.27751E-03    74   0.213E-01    0.331E-02
RMM:   4    -0.985858401398E+02   -0.39891E-04   -0.50075E-04    78   0.901E-02    0.177E-02
RMM:   5    -0.985858444067E+02   -0.42669E-05   -0.78814E-05    63   0.370E-02    0.639E-03
RMM:   6    -0.985858459297E+02   -0.15230E-05   -0.16526E-05    49   0.171E-02
    270 T=   532. E= -.98600276E+02 F= -.98585846E+02 E0= -.98587779E+02  EK= 0.10314E+01 SP= -.11E+01 SK= 0.22E-01
 bond charge predicted
 prediction of wavefunctions
       N       E                     dE             d eps       ncg     rms          rms(c)
RMM:   1    -0.987197170747E+02   -0.13387E+00   -0.11400E-01    72   0.187E+00    0.112E-01
RMM:   2    -0.987205522970E+02   -0.83522E-03   -0.96251E-03    73   0.457E-01    0.738E-02
RMM:   3    -0.987207541834E+02   -0.20189E-03   -0.24348E-03    77   0.183E-01    0.294E-02
RMM:   4    -0.987207881946E+02   -0.34011E-04   -0.36655E-04    73   0.769E-02    0.123E-02
RMM:   5    -0.987207987439E+02   -0.10549E-04   -0.11383E-04    62   0.333E-02    0.627E-03
RMM:   6    -0.987207998613E+02   -0.11174E-05   -0.96827E-06    49   0.129E-02
    271 T=   578. E= -.98609106E+02 F= -.98720800E+02 E0= -.98722735E+02  EK= 0.11198E+01 SP= -.10E+01 SK= 0.26E-01
 bond charge predicted
 prediction of wavefunctions
       N       E                     dE             d eps       ncg     rms          rms(c)
RMM:   1    -0.988211971986E+02   -0.10040E+00   -0.16689E-01    72   0.232E+00    0.143E-01
RMM:   2    -0.988222438798E+02   -0.10467E-02   -0.13107E-02    73   0.537E-01    0.910E-02
RMM:   3    -0.988224784746E+02   -0.23459E-03   -0.31162E-03    76   0.216E-01    0.464E-02
RMM:   4    -0.988225367374E+02   -0.58263E-04   -0.64172E-04    76   0.897E-02    0.176E-02
RMM:   5    -0.988225455483E+02   -0.88109E-05   -0.91195E-05    70   0.377E-02    0.790E-03
RMM:   6    -0.988225478967E+02   -0.23484E-05   -0.13078E-05    48   0.153E-02
    272 T=   605. E= -.98612046E+02 F= -.98822548E+02 E0= -.98824489E+02  EK= 0.11727E+01 SP= -.10E+01 SK= 0.34E-01
Information: wavefunction orthogonal band   34  0.8981
 bond charge predicted
 prediction of wavefunctions
       N       E                     dE             d eps       ncg     rms          rms(c)
RMM:   1    -0.988326638055E+02   -0.10118E-01   -0.16566E-01    72   0.233E+00    0.140E-01
RMM:   2    -0.988335515552E+02   -0.88775E-03   -0.11864E-02    73   0.554E-01    0.868E-02
RMM:   3    -0.988336993940E+02   -0.14784E-03   -0.22397E-03    77   0.205E-01    0.517E-02
RMM:   4    -0.988337167788E+02   -0.17385E-04   -0.32855E-04    72   0.841E-02    0.158E-02
RMM:   5    -0.988337302097E+02   -0.13431E-04   -0.10996E-04    71   0.419E-02    0.849E-03
RMM:   6    -0.988337337716E+02   -0.35619E-05   -0.14201E-05    49   0.166E-02
    273 T=   586. E= -.98607454E+02 F= -.98833734E+02 E0= -.98835696E+02  EK= 0.11358E+01 SP= -.95E+00 SK= 0.44E-01
 bond charge predicted
 prediction of wavefunctions
       N       E                     dE             d eps       ncg     rms          rms(c)
RMM:   1    -0.988076892112E+02    0.26041E-01   -0.15211E-01    72   0.219E+00    0.146E-01
RMM:   2    -0.988083575022E+02   -0.66829E-03   -0.10929E-02    73   0.570E-01    0.877E-02
RMM:   3    -0.988085518163E+02   -0.19431E-03   -0.28320E-03    76   0.227E-01    0.458E-02
RMM:   4    -0.988085830844E+02   -0.31268E-04   -0.47723E-04    76   0.929E-02    0.224E-02
RMM:   5    -0.988085960684E+02   -0.12984E-04   -0.10056E-04    69   0.421E-02    0.760E-03
RMM:   6    -0.988086001533E+02   -0.40849E-05   -0.21720E-05    53   0.220E-02
    274 T=   548. E= -.98601797E+02 F= -.98808600E+02 E0= -.98810574E+02  EK= 0.10618E+01 SP= -.91E+00 SK= 0.51E-01
 bond charge predicted
 prediction of wavefunctions
       N       E                     dE             d eps       ncg     rms          rms(c)
RMM:   1    -0.988195447514E+02   -0.10949E-01   -0.11313E-01    72   0.197E+00    0.118E-01
RMM:   2    -0.988200508845E+02   -0.50613E-03   -0.74504E-03    74   0.459E-01    0.806E-02
RMM:   3    -0.988201522046E+02   -0.10132E-03   -0.20416E-03    75   0.185E-01    0.288E-02
RMM:   4    -0.988201715102E+02   -0.19306E-04   -0.29331E-04    76   0.730E-02    0.197E-02
RMM:   5    -0.988201771543E+02   -0.56440E-05   -0.54426E-05    61   0.321E-02    0.407E-03
RMM:   6    -0.988201785428E+02   -0.13885E-05   -0.86660E-06    48   0.141E-02
    275 T=   525. E= -.98602080E+02 F= -.98820179E+02 E0= -.98822124E+02  EK= 0.10189E+01 SP= -.86E+00 SK= 0.55E-01
 bond charge predicted
 prediction of wavefunctions
       N       E                     dE             d eps       ncg     rms          rms(c)
RMM:   1    -0.988604615012E+02   -0.40284E-01   -0.86260E-02    72   0.167E+00    0.947E-02
RMM:   2    -0.988610459468E+02   -0.58445E-03   -0.70642E-03    74   0.428E-01    0.645E-02
RMM:   3    -0.988611708835E+02   -0.12494E-03   -0.18280E-03    79   0.174E-01    0.311E-02
RMM:   4    -0.988611886405E+02   -0.17757E-04   -0.24012E-04    76   0.651E-02    0.149E-02
RMM:   5    -0.988611946508E+02   -0.60103E-05   -0.40795E-05    57   0.279E-02    0.786E-03
RMM:   6    -0.988611973767E+02   -0.27259E-05   -0.75323E-06    47   0.124E-02
    276 T=   517. E= -.98604970E+02 F= -.98861197E+02 E0= -.98863131E+02  EK= 0.10021E+01 SP= -.80E+00 SK= 0.58E-01
 bond charge predicted
 prediction of wavefunctions
       N       E                     dE             d eps       ncg     rms          rms(c)
RMM:   1    -0.988805468391E+02   -0.19352E-01   -0.11172E-01    72   0.191E+00    0.112E-01
RMM:   2    -0.988811611002E+02   -0.61426E-03   -0.80829E-03    74   0.480E-01    0.706E-02
RMM:   3    -0.988812731895E+02   -0.11209E-03   -0.16845E-03    77   0.186E-01    0.313E-02
RMM:   4    -0.988812986045E+02   -0.25415E-04   -0.32150E-04    79   0.739E-02    0.152E-02
RMM:   5    -0.988813044723E+02   -0.58678E-05   -0.44001E-05    58   0.288E-02    0.563E-03
RMM:   6    -0.988813068690E+02   -0.23967E-05   -0.69684E-06    48   0.122E-02
    277 T=   498. E= -.98606067E+02 F= -.98881307E+02 E0= -.98883240E+02  EK= 0.96614E+00 SP= -.75E+00 SK= 0.60E-01
 bond charge predicted
 prediction of wavefunctions
       N       E                     dE             d eps       ncg     rms          rms(c)
RMM:   1    -0.988546388885E+02    0.26666E-01   -0.13944E-01    72   0.208E+00    0.110E-01
RMM:   2    -0.988554841866E+02   -0.84530E-03   -0.10099E-02    74   0.523E-01    0.692E-02
RMM:   3    -0.988556488445E+02   -0.16466E-03   -0.20234E-03    76   0.195E-01    0.347E-02
RMM:   4    -0.988556774647E+02   -0.28620E-04   -0.35821E-04    77   0.785E-02    0.106E-02
RMM:   5    -0.988556841609E+02   -0.66962E-05   -0.64154E-05    60   0.326E-02    0.598E-03
RMM:   6    -0.988556860117E+02   -0.18508E-05   -0.78270E-06    49   0.128E-02
    278 T=   459. E= -.98604891E+02 F= -.98855686E+02 E0= -.98857619E+02  EK= 0.88954E+00 SP= -.70E+00 SK= 0.59E-01
 bond charge predicted
 prediction of wavefunctions
       N       E                     dE             d eps       ncg     rms          rms(c)
RMM:   1    -0.987949103640E+02    0.60774E-01   -0.14519E-01    72   0.195E+00    0.982E-02
RMM:   2    -0.987959013833E+02   -0.99102E-03   -0.11472E-02    72   0.530E-01    0.572E-02
RMM:   3    -0.987962249379E+02   -0.32355E-03   -0.34694E-03    81   0.210E-01    0.348E-02
RMM:   4    -0.987962453246E+02   -0.20387E-04   -0.36426E-04    72   0.780E-02    0.139E-02
RMM:   5    -0.987962544241E+02   -0.90995E-05   -0.98830E-05    67   0.395E-02    0.536E-03
RMM:   6    -0.987962566154E+02   -0.21913E-05   -0.16065E-05    50   0.182E-02
    279 T=   406. E= -.98601674E+02 F= -.98796257E+02 E0= -.98798189E+02  EK= 0.78785E+00 SP= -.65E+00 SK= 0.53E-01
 bond charge predicted
 prediction of wavefunctions
       N       E                     dE             d eps       ncg     rms          rms(c)
RMM:   1    -0.987499284141E+02    0.46326E-01   -0.16614E-01    72   0.220E+00    0.120E-01
RMM:   2    -0.987507448180E+02   -0.81640E-03   -0.10689E-02    73   0.566E-01    0.759E-02
RMM:   3    -0.987509488954E+02   -0.20408E-03   -0.26957E-03    77   0.213E-01    0.370E-02
RMM:   4    -0.987509781741E+02   -0.29279E-04   -0.42596E-04    74   0.857E-02    0.149E-02
RMM:   5    -0.987509880520E+02   -0.98778E-05   -0.10627E-04    68   0.399E-02    0.575E-03
RMM:   6    -0.987509904367E+02   -0.23847E-05   -0.12532E-05    49   0.161E-02
    280 T=   366. E= -.98598316E+02 F= -.98750990E+02 E0= -.98752923E+02  EK= 0.70904E+00 SP= -.60E+00 SK= 0.42E-01
Information: wavefunction orthogonal band   36  0.8792
 bond charge predicted
 prediction of wavefunctions
       N       E                     dE             d eps       ncg     rms          rms(c)
RMM:   1    -0.987637133549E+02   -0.12725E-01   -0.14246E-01    72   0.208E+00    0.109E-01
RMM:   2    -0.987645195570E+02   -0.80620E-03   -0.96365E-03    72   0.532E-01    0.700E-02
RMM:   3    -0.987647152220E+02   -0.19566E-03   -0.24261E-03    77   0.201E-01    0.375E-02
RMM:   4    -0.987647354728E+02   -0.20251E-04   -0.36034E-04    72   0.807E-02    0.123E-02
RMM:   5    -0.987647460829E+02   -0.10610E-04   -0.11023E-04    72   0.399E-02    0.622E-03
RMM:   6    -0.987647476361E+02   -0.15531E-05   -0.11906E-05    49   0.158E-02
    281 T=   356. E= -.98600281E+02 F= -.98764748E+02 E0= -.98766680E+02  EK= 0.69073E+00 SP= -.56E+00 SK= 0.31E-01
Information: wavefunction orthogonal band   34  0.8993
 bond charge predicted
 prediction of wavefunctions
       N       E                     dE             d eps       ncg     rms          rms(c)
RMM:   1    -0.988120517285E+02   -0.47306E-01   -0.10259E-01    72   0.180E+00    0.103E-01
RMM:   2    -0.988124511120E+02   -0.39938E-03   -0.59319E-03    72   0.472E-01    0.606E-02
RMM:   3    -0.988125603108E+02   -0.10920E-03   -0.14436E-03    78   0.176E-01    0.329E-02
RMM:   4    -0.988125696846E+02   -0.93739E-05   -0.18846E-04    71   0.657E-02    0.108E-02
RMM:   5    -0.988125778005E+02   -0.81159E-05   -0.50829E-05    61   0.321E-02    0.413E-03
RMM:   6    -0.988125824942E+02   -0.46936E-05   -0.11093E-05    49   0.154E-02
    282 T=   366. E= -.98602619E+02 F= -.98812582E+02 E0= -.98814515E+02  EK= 0.71048E+00 SP= -.52E+00 SK= 0.21E-01
 bond charge predicted
 prediction of wavefunctions
       N       E                     dE             d eps       ncg     rms          rms(c)
RMM:   1    -0.988550722831E+02   -0.42494E-01   -0.12161E-01    72   0.200E+00    0.132E-01
RMM:   2    -0.988553561202E+02   -0.28384E-03   -0.64692E-03    72   0.497E-01    0.776E-02
RMM:   3    -0.988554573818E+02   -0.10126E-03   -0.16266E-03    77   0.189E-01    0.401E-02
RMM:   4    -0.988554708238E+02   -0.13442E-04   -0.23082E-04    74   0.701E-02    0.165E-02
RMM:   5    -0.988554808245E+02   -0.10001E-04   -0.48411E-05    63   0.326E-02    0.446E-03
RMM:   6    -0.988554854025E+02   -0.45780E-05   -0.10602E-05    48   0.153E-02
    283 T=   377. E= -.98602930E+02 F= -.98855485E+02 E0= -.98857418E+02  EK= 0.73106E+00 SP= -.49E+00 SK= 0.14E-01
 bond charge predicted
 prediction of wavefunctions
       N       E                     dE             d eps       ncg     rms          rms(c)
RMM:   1    -0.988797650878E+02   -0.24284E-01   -0.98599E-02    72   0.175E+00    0.949E-02
RMM:   2    -0.988801405038E+02   -0.37542E-03   -0.56050E-03    72   0.454E-01    0.585E-02
RMM:   3    -0.988802497709E+02   -0.10927E-03   -0.14485E-03    76   0.171E-01    0.310E-02
RMM:   4    -0.988802683659E+02   -0.18595E-04   -0.28444E-04    78   0.678E-02    0.172E-02
RMM:   5    -0.988802707040E+02   -0.23381E-05   -0.32000E-05    58   0.278E-02    0.394E-03
RMM:   6    -0.988802719008E+02   -0.11968E-05   -0.74068E-06    48   0.130E-02
    284 T=   381. E= -.98602395E+02 F= -.98880272E+02 E0= -.98882205E+02  EK= 0.73828E+00 SP= -.47E+00 SK= 0.90E-02
 bond charge predicted
 prediction of wavefunctions
       N       E                     dE             d eps       ncg     rms          rms(c)
RMM:   1    -0.988914064707E+02   -0.11136E-01   -0.93636E-02    72   0.173E+00    0.982E-02
RMM:   2    -0.988918017839E+02   -0.39531E-03   -0.58709E-03    73   0.453E-01    0.625E-02
RMM:   3    -0.988918978460E+02   -0.96062E-04   -0.14187E-03    77   0.174E-01    0.313E-02
RMM:   4    -0.988919102750E+02   -0.12429E-04   -0.22284E-04    76   0.704E-02    0.168E-02
RMM:   5    -0.988919156502E+02   -0.53752E-05   -0.39048E-05    60   0.296E-02    0.547E-03
RMM:   6    -0.988919192359E+02   -0.35857E-05   -0.11073E-05    48   0.161E-02
    285 T=   380. E= -.98600706E+02 F= -.98891919E+02 E0= -.98893852E+02  EK= 0.73771E+00 SP= -.45E+00 SK= 0.49E-02
 bond charge predicted
 prediction of wavefunctions
       N       E                     dE             d eps       ncg     rms          rms(c)
RMM:   1    -0.989130633780E+02   -0.21148E-01   -0.84796E-02    72   0.164E+00    0.102E-01
RMM:   2    -0.989133878544E+02   -0.32448E-03   -0.53861E-03    72   0.433E-01    0.631E-02
RMM:   3    -0.989134784807E+02   -0.90626E-04   -0.14689E-03    77   0.170E-01    0.312E-02
