<?xml version="1.0" encoding="ISO-8859-1"?>
<modeling>
 <generator>
  <i name="program" type="string">vasp </i>
  <i name="version" type="string">6.4.1  </i>
  <i name="subversion" type="string">05Apr23 (build Jun 16 2023 21:25:53) gamma-only                       parallel </i>
  <i name="platform" type="string">LinuxIFC </i>
  <i name="date" type="string">2024 07 14 </i>
  <i name="time" type="string">19:17:13 </i>
 </generator>
 <incar>
  <i type="string" name="SYSTEM">Cluster</i>
  <i type="string" name="ALGO">V</i>
  <i type="int" name="NELM">   150</i>
  <i type="int" name="NELMDL">   -20</i>
  <i type="int" name="NELMIN">     6</i>
  <i type="int" name="IBRION">     0</i>
  <i name="EDIFF">      0.00001000</i>
  <i name="EDIFFG">     -0.02000000</i>
  <i type="int" name="NSW">   300</i>
  <i type="int" name="ISIF">     2</i>
  <i type="int" name="ISYM">     0</i>
  <i type="int" name="NBLOCK">     1</i>
  <i name="ENCUT">    500.00000000</i>
  <i name="POTIM">      1.00000000</i>
  <i name="TEBEG">    500.00000000</i>
  <i name="TEEND">    500.00000000</i>
  <i name="SMASS">      0.00000000</i>
  <i type="string" name="LREAL">Auto</i>
  <i type="int" name="ISMEAR">     1</i>
  <i name="SIGMA">      0.10000000</i>
  <i type="logical" name="LWAVE"> F  </i>
  <i type="logical" name="LCHARG"> F  </i>
  <i type="int" name="LORBIT">    11</i>
  <i type="int" name="MDALGO">     2</i>
 </incar>
 <primitive_cell>
  <structure name="primitive_cell" >
   <crystal>
    <varray name="basis" >
     <v>       7.75330000       0.00000000       0.00000000 </v>
     <v>       0.00000000      11.81980000       0.00000000 </v>
     <v>       0.00000000       0.00000000      11.23080000 </v>
    </varray>
    <i name="volume">   1029.21808743 </i>
    <varray name="rec_basis" >
     <v>       0.12897734       0.00000000       0.00000000 </v>
     <v>       0.00000000       0.08460380       0.00000000 </v>
     <v>       0.00000000       0.00000000       0.08904085 </v>
    </varray>
   </crystal>
   <varray name="positions" >
    <v>       0.49766628       0.71212418       0.54377802 </v>
    <v>       0.49959992       0.58501825       0.54382026 </v>
    <v>       0.50800930       0.52658262       0.43511421 </v>
    <v>       0.50948169       0.40842251       0.43560562 </v>
    <v>       0.50323632       0.34477409       0.53896001 </v>
    <v>       0.49519871       0.40281373       0.64738694 </v>
    <v>       0.49332285       0.52106937       0.64882015 </v>
    <v>       0.51772901       0.35623285       0.32589303 </v>
    <v>       0.61369220       0.74638399       0.50042909 </v>
    <v>       0.38641505       0.74489715       0.49369551 </v>
    <v>       0.49142581       0.74490983       0.63510168 </v>
    <v>       0.51985112       0.53111248       0.26577645 </v>
    <v>       0.50510968       0.25273353       0.53368261 </v>
    <v>       0.48986206       0.35532152       0.73057843 </v>
    <v>       0.48652469       0.56564964       0.73394693 </v>
    <v>       0.51443606       0.58615703       0.33044093 </v>
   </varray>
  </structure>
  <varray name="primitive_index" >
   <v type="int" >        1 </v>
   <v type="int" >        2 </v>
   <v type="int" >        3 </v>
   <v type="int" >        4 </v>
   <v type="int" >        5 </v>
   <v type="int" >        6 </v>
   <v type="int" >        7 </v>
   <v type="int" >        8 </v>
   <v type="int" >        9 </v>
   <v type="int" >       10 </v>
   <v type="int" >       11 </v>
   <v type="int" >       12 </v>
   <v type="int" >       13 </v>
   <v type="int" >       14 </v>
   <v type="int" >       15 </v>
   <v type="int" >       16 </v>
  </varray>
 </primitive_cell>
 <kpoints>
  <generation param="Gamma">
   <v type="int" name="divisions">       1        1        1 </v>
   <v name="usershift">      0.00000000       0.00000000       0.00000000 </v>
   <v name="genvec1">      1.00000000       0.00000000       0.00000000 </v>
   <v name="genvec2">      0.00000000       1.00000000       0.00000000 </v>
   <v name="genvec3">      0.00000000       0.00000000       1.00000000 </v>
   <v name="shift">      0.00000000       0.00000000       0.00000000 </v>
  </generation>
  <varray name="kpointlist" >
   <v>       0.00000000       0.00000000       0.00000000 </v>
  </varray>
  <varray name="weights" >
   <v>       1.00000000 </v>
  </varray>
 </kpoints>
 <parameters>
  <separator name="general" >
   <i type="string" name="SYSTEM">Cluster</i>
   <i type="logical" name="LCOMPAT"> F  </i>
  </separator>
  <separator name="electronic" >
   <i type="string" name="PREC">normal</i>
   <i name="ENMAX">    500.00000000</i>
   <i name="ENAUG">    644.87300000</i>
   <i name="EDIFF">      0.00001000</i>
   <i type="int" name="IALGO">    48</i>
   <i type="int" name="IWAVPR">    12</i>
   <i type="int" name="NBANDS">    36</i>
   <i type="int" name="NBANDSLOW">    -1</i>
   <i type="int" name="NBANDSHIGH">    -1</i>
   <i name="NELECT">     48.00000000</i>
   <i type="int" name="TURBO">     0</i>
   <i type="int" name="IRESTART">     0</i>
   <i type="int" name="NREBOOT">     0</i>
   <i type="int" name="NMIN">     0</i>
   <i name="EREF">      0.00000000</i>
   <separator name="electronic smearing" >
    <i type="int" name="ISMEAR">     1</i>
    <i name="SIGMA">      0.10000000</i>
    <i name="KSPACING">      0.50000000</i>
    <i type="logical" name="KGAMMA"> T  </i>
    <i type="logical" name="KBLOWUP"> T  </i>
   </separator>
   <separator name="electronic projectors" >
    <i type="logical" name="LREAL"> T  </i>
    <v name="ROPT">     -0.00050000     -0.00050000     -0.00050000     -0.00050000</v>
    <i type="int" name="LMAXPAW">  -100</i>
    <i type="int" name="LMAXMIX">     2</i>
    <i type="logical" name="NLSPLINE"> F  </i>
   </separator>
   <separator name="electronic startup" >
    <i type="int" name="ISTART">     0</i>
    <i type="int" name="ICHARG">     2</i>
    <i type="int" name="INIWAV">     1</i>
   </separator>
   <separator name="electronic spin" >
    <i type="int" name="ISPIN">     1</i>
    <i type="logical" name="LNONCOLLINEAR"> F  </i>
    <v name="MAGMOM">      1.00000000      1.00000000      1.00000000      1.00000000      1.00000000      1.00000000      1.00000000      1.00000000      1.00000000      1.00000000      1.00000000      1.00000000      1.00000000      1.00000000      1.00000000      1.00000000</v>
    <i name="NUPDOWN">     -1.00000000</i>
    <i type="logical" name="LSORBIT"> F  </i>
    <v name="SAXIS">      0.00000000      0.00000000      1.00000000</v>
    <i type="logical" name="LSPIRAL"> F  </i>
    <v name="QSPIRAL">      0.00000000      0.00000000      0.00000000</v>
    <i type="logical" name="LZEROZ"> F  </i>
   </separator>
   <separator name="electronic exchange-correlation" >
    <i type="logical" name="LASPH"> F  </i>
    <i type="logical" name="LMETAGGA"> F  </i>
   </separator>
   <separator name="electronic convergence" >
    <i type="int" name="NELM">   150</i>
    <i type="int" name="NELMDL">   -20</i>
    <i type="int" name="NELMIN">     6</i>
    <i name="ENINI">    500.00000000</i>
    <separator name="electronic convergence detail" >
     <i type="logical" name="LDIAG"> T  </i>
     <i type="logical" name="LSUBROT"> F  </i>
     <i name="WEIMIN">      0.00100000</i>
     <i name="EBREAK">      0.00000007</i>
     <i name="DEPER">      0.30000000</i>
     <i type="int" name="NRMM">     4</i>
     <i name="TIME">      0.40000000</i>
    </separator>
   </separator>
   <separator name="electronic mixer" >
    <i name="AMIX">      0.40000000</i>
    <i name="BMIX">      1.00000000</i>
    <i name="AMIN">      0.10000000</i>
    <i name="AMIX_MAG">      1.60000000</i>
    <i name="BMIX_MAG">      1.00000000</i>
    <separator name="electronic mixer details" >
     <i type="int" name="IMIX">     4</i>
     <i type="logical" name="MIXFIRST"> F  </i>
     <i type="int" name="MAXMIX">   -45</i>
     <i name="WC">    100.00000000</i>
     <i type="int" name="INIMIX">     1</i>
     <i type="int" name="MIXPRE">     1</i>
     <i type="int" name="MREMOVE">     5</i>
    </separator>
   </separator>
   <separator name="electronic dipolcorrection" >
    <i type="logical" name="LDIPOL"> F  </i>
    <i type="logical" name="LMONO"> F  </i>
    <i type="int" name="IDIPOL">     0</i>
    <i name="EPSILON">      1.00000000</i>
    <v name="DIPOL">   -100.00000000   -100.00000000   -100.00000000</v>
    <i name="EFIELD">      0.00000000</i>
   </separator>
  </separator>
  <separator name="grids" >
   <i type="int" name="NGX">    42</i>
   <i type="int" name="NGY">    70</i>
   <i type="int" name="NGZ">    64</i>
   <i type="int" name="NGXF">    84</i>
   <i type="int" name="NGYF">   140</i>
   <i type="int" name="NGZF">   128</i>
   <i type="logical" name="ADDGRID"> F  </i>
  </separator>
  <separator name="ionic" >
   <i type="int" name="NSW">   300</i>
   <i type="int" name="IBRION">     0</i>
   <i type="int" name="MDALGO">     2</i>
   <i type="int" name="ISIF">     2</i>
   <i name="PSTRESS">      0.00000000</i>
   <i name="EDIFFG">     -0.02000000</i>
   <i type="int" name="NFREE">     0</i>
   <i name="POTIM">      1.00000000</i>
   <i name="SMASS">      0.02522530</i>
   <i name="SCALEE">      1.00000000</i>
  </separator>
  <separator name="ionic md" >
   <i name="TEBEG">    500.00000000</i>
   <i name="TEEND">    500.00000000</i>
   <i type="int" name="NBLOCK">     1</i>
   <i type="int" name="KBLOCK">   300</i>
   <i type="int" name="NPACO">   256</i>
   <i name="APACO">     10.00000000</i>
  </separator>
  <separator name="symmetry" >
   <i type="int" name="ISYM">     0</i>
   <i name="SYMPREC">      0.00001000</i>
  </separator>
  <separator name="dos" >
   <i type="int" name="LORBIT">    11</i>
   <v name="RWIGS">     -1.00000000     -1.00000000     -1.00000000     -1.00000000</v>
   <i type="int" name="NEDOS">   301</i>
   <i name="EMIN">     10.00000000</i>
   <i name="EMAX">    -10.00000000</i>
   <i name="EFERMI">      0.00000000</i>
  </separator>
  <separator name="writing" >
   <i type="int" name="NWRITE">     2</i>
   <i type="logical" name="LWAVE"> F  </i>
   <i type="logical" name="LDOWNSAMPLE"> F  </i>
   <i type="logical" name="LCHARG"> F  </i>
   <i type="logical" name="LPARD"> F  </i>
   <i type="logical" name="LVTOT"> F  </i>
   <i type="logical" name="LVHAR"> F  </i>
   <i type="logical" name="LELF"> F  </i>
   <i type="logical" name="LOPTICS"> F  </i>
   <v name="STM">      0.00000000      0.00000000      0.00000000      0.00000000      0.00000000      0.00000000      0.00000000</v>
  </separator>
  <separator name="performance" >
   <i type="int" name="NPAR">     4</i>
   <i type="int" name="NSIM">     4</i>
   <i type="int" name="NBLK">    -1</i>
   <i type="logical" name="LPLANE"> T  </i>
   <i type="logical" name="LSCALAPACK"> T  </i>
   <i type="logical" name="LSCAAWARE"> F  </i>
   <i type="logical" name="LSCALU"> F  </i>
   <i type="logical" name="LASYNC"> F  </i>
   <i type="logical" name="LORBITALREAL"> F  </i>
  </separator>
  <separator name="miscellaneous" >
   <i type="int" name="IDIOT">     3</i>
   <i type="int" name="PHON_NSTRUCT">    -1</i>
   <i type="logical" name="LMUSIC"> F  </i>
   <v name="POMASS">     12.01100000     18.99800000      1.00000000     16.00000000</v>
   <v name="DARWINR">      0.00000000      0.00000000      0.00000000      0.00000000</v>
   <v name="DARWINV">      1.00000000      1.00000000      1.00000000      1.00000000</v>
   <i type="logical" name="LCORR"> T  </i>
  </separator>
  <i type="logical" name="GGA_COMPAT"> T  </i>
  <i type="logical" name="LBERRY"> F  </i>
  <i type="int" name="ICORELEVEL">     0</i>
  <i type="logical" name="LDAU"> F  </i>
  <i type="int" name="I_CONSTRAINED_M">     0</i>
  <separator name="electronic exchange-correlation" >
   <i type="string" name="GGA">--</i>
   <i type="int" name="VOSKOWN">     0</i>
   <i type="logical" name="LHFCALC"> F  </i>
   <i type="string" name="PRECFOCK"></i>
   <i type="logical" name="LSYMGRAD"> F  </i>
   <i type="logical" name="LHFONE"> F  </i>
   <i type="logical" name="LRHFCALC"> F  </i>
   <i type="logical" name="LTHOMAS"> F  </i>
   <i type="logical" name="LMODELHF"> F  </i>
   <i type="logical" name="LFOCKACE"> F  </i>
   <i name="ENCUT4O">     -1.00000000</i>
   <i type="int" name="EXXOEP">     0</i>
   <i type="int" name="FOURORBIT">     0</i>
   <i name="AEXX">      0.00000000</i>
   <i name="HFALPHA">      0.00000000</i>
   <i name="MCALPHA">      0.00000000</i>
   <i name="ALDAX">      1.00000000</i>
   <i name="AGGAX">      1.00000000</i>
   <i name="ALDAC">      1.00000000</i>
   <i name="AGGAC">      1.00000000</i>
   <i type="int" name="NKREDX">     1</i>
   <i type="int" name="NKREDY">     1</i>
   <i type="int" name="NKREDZ">     1</i>
   <i type="logical" name="SHIFTRED"> F  </i>
   <i type="logical" name="ODDONLY"> F  </i>
   <i type="logical" name="EVENONLY"> F  </i>
   <i type="int" name="LMAXFOCK">     0</i>
   <i type="int" name="NMAXFOCKAE">     0</i>
   <i type="logical" name="LFOCKAEDFT"> F  </i>
   <i name="HFSCREEN">      0.00000000</i>
   <i name="HFSCREENC">      0.00000000</i>
   <i type="int" name="NBANDSGWLOW">     0</i>
  </separator>
  <separator name="vdW DFT" >
   <i type="logical" name="LUSE_VDW"> F  </i>
   <i type="int" name="IVDW_NL">     1</i>
   <i type="logical" name="LSPIN_VDW"> F  </i>
   <i name="Zab_VDW">     -0.84910000</i>
   <i name="PARAM1">      0.12340000</i>
   <i name="PARAM2">      1.00000000</i>
   <i name="PARAM3">      0.00000000</i>
  </separator>
  <separator name="model GW" >
   <i type="int" name="MODEL_GW">     0</i>
   <i name="MODEL_EPS0">     38.59567828</i>
   <i name="MODEL_ALPHA">      1.00000000</i>
  </separator>
  <separator name="linear response parameters" >
   <i type="logical" name="LEPSILON"> F  </i>
   <i type="logical" name="LRPA"> F  </i>
   <i type="logical" name="LNABLA"> F  </i>
   <i type="logical" name="LVEL"> F  </i>
   <i name="CSHIFT">      0.10000000</i>
   <i name="OMEGAMAX">     -1.00000000</i>
   <i name="DEG_THRESHOLD">      0.00200000</i>
   <i name="RTIME">     -0.10000000</i>
   <i name="WPLASMAI">      0.00000000</i>
   <v name="DFIELD">      0.00000000      0.00000000      0.00000000</v>
   <v name="WPLASMA">      0.00000000      0.00000000      0.00000000      0.00000000      0.00000000      0.00000000      0.00000000      0.00000000      0.00000000</v>
  </separator>
  <separator name="orbital magnetization" >
   <i type="logical" name="NUCIND"> F  </i>
   <v name="MAGPOS">      0.00000000      0.00000000      0.00000000</v>
   <i type="logical" name="LNICSALL"> T  </i>
   <i type="logical" name="ORBITALMAG"> F  </i>
   <i type="logical" name="LMAGBLOCH"> F  </i>
   <i type="logical" name="LCHIMAG"> F  </i>
   <i type="logical" name="LGAUGE"> T  </i>
   <i type="int" name="MAGATOM">     0</i>
   <v name="MAGDIPOL">      0.00000000      0.00000000      0.00000000</v>
   <v name="AVECCONST">      0.00000000      0.00000000      0.00000000</v>
  </separator>
  <separator name="response functions" >
   <i type="logical" name="LALL_IN_ONE"> F  </i>
   <i type="int" name="IALL_IN_ONE">    -1</i>
   <i type="int" name="NBANDS_WAVE">    -1</i>
   <i type="logical" name="LFINITE_TEMPERATURE"> F  </i>
   <i type="logical" name="LADDER"> F  </i>
   <i type="logical" name="LRPAFORCE"> F  </i>
   <i type="logical" name="LFXC"> F  </i>
   <i type="logical" name="LHARTREE"> T  </i>
   <i type="int" name="IBSE">     0</i>
   <v type="int" name="KPOINT">    -1     0     0     0</v>
   <i type="logical" name="LTCTC"> F  </i>
   <i type="logical" name="LTCTE"> F  </i>
   <i type="logical" name="LTETE"> F  </i>
   <i type="logical" name="LTRIPLET"> F  </i>
   <i type="logical" name="LFXCEPS"> F  </i>
   <i type="logical" name="LFXHEG"> F  </i>
   <i type="int" name="NATURALO">     2</i>
   <i type="logical" name="LHOLEGF"> F  </i>
   <i type="logical" name="L2ORDER"> F  </i>
   <i type="logical" name="LDMP1"> F  </i>
   <i type="logical" name="LMP2LT"> F  </i>
   <i type="logical" name="LSMP2LT"> F  </i>
   <i type="logical" name="LGWLF"> F  </i>
   <i name="ENCUTGW">     -1.60000002</i>
   <i name="ENCUTGWSOFT">     -1.60000002</i>
   <i name="ENCUTLF">     -1.00000000</i>
   <i type="logical" name="LESF_SPLINES"> F  </i>
   <i type="int" name="LMAXMP2">    -1</i>
   <i name="SCISSOR">      0.00000000</i>
   <i type="int" name="NOMEGA">     0</i>
   <i type="int" name="NOMEGAR">     0</i>
   <i type="int" name="NBANDSGW">    -1</i>
   <i type="int" name="NBANDSO">    -1</i>
   <i type="int" name="NBANDSV">    -1</i>
   <i type="int" name="NELMGW">     1</i>
   <i type="int" name="NELMHF">     1</i>
   <i type="int" name="DIM">     3</i>
   <i type="int" name="IESPILON">     4</i>
   <i type="int" name="ANTIRES">     0</i>
   <i name="OMEGAMAX">    -30.00000000</i>
   <i name="OMEGAMIN">    -30.00000000</i>
   <i name="OMEGATL">   -200.00000000</i>
   <i type="int" name="OMEGAGRID">     0</i>
   <i name="CSHIFT">     -0.10000000</i>
   <i type="logical" name="LSELFENERGY"> F  </i>
   <i type="logical" name="LSPECTRAL"> F  </i>
   <i type="logical" name="LSPECTRALGW"> F  </i>
   <i type="logical" name="LSINGLES"> F  </i>
   <i type="logical" name="LFERMIGW"> F  </i>
   <i type="logical" name="ODDONLYGW"> F  </i>
   <i type="logical" name="EVENONLYGW"> F  </i>
   <i type="int" name="NKREDLFX">     1</i>
   <i type="int" name="NKREDLFY">     1</i>
   <i type="int" name="NKREDLFZ">     1</i>
   <i type="int" name="MAXMEM">  2800</i>
   <i type="int" name="TELESCOPE">     0</i>
   <i type="int" name="NTAUPAR">    -1</i>
   <i type="int" name="NOMEGAPAR">    -1</i>
   <i name="DAMP_NEWTON">      0.80000001</i>
   <i name="LAMBDA">      1.00000000</i>
  </separator>
  <separator name="External order field" >
   <i name="OFIELD_KAPPA">      0.00000000</i>
   <v name="OFIELD_K">      0.00000000      0.00000000      0.00000000</v>
   <i name="OFIELD_Q6_NEAR">      0.00000000</i>
   <i name="OFIELD_Q6_FAR">      0.00000000</i>
   <i name="OFIELD_A">      0.00000000</i>
  </separator>
  <separator name="optional k-points parameters" >
   <i type="int" name="KPOINTS_OPT_MODE">     1</i>
   <i type="logical" name="LKPOINTS_OPT"> F  </i>
  </separator>
  <separator name="solvation model" >
   <i type="logical" name="LSOL"> F  </i>
  </separator>
 </parameters>
 <atominfo>
  <atoms>      16 </atoms>
  <types>       4 </types>
  <array name="atoms" >
   <dimension dim="1">ion</dimension>
   <field type="string">element</field>
   <field type="int">atomtype</field>
   <set>
    <rc><c>C </c><c>   1</c></rc>
    <rc><c>C </c><c>   1</c></rc>
    <rc><c>C </c><c>   1</c></rc>
    <rc><c>C </c><c>   1</c></rc>
    <rc><c>C </c><c>   1</c></rc>
    <rc><c>C </c><c>   1</c></rc>
    <rc><c>C </c><c>   1</c></rc>
    <rc><c>F </c><c>   2</c></rc>
    <rc><c>H </c><c>   3</c></rc>
    <rc><c>H </c><c>   3</c></rc>
    <rc><c>H </c><c>   3</c></rc>
    <rc><c>H </c><c>   3</c></rc>
    <rc><c>H </c><c>   3</c></rc>
    <rc><c>H </c><c>   3</c></rc>
    <rc><c>H </c><c>   3</c></rc>
    <rc><c>O </c><c>   4</c></rc>
   </set>
  </array>
  <array name="atomtypes" >
   <dimension dim="1">type</dimension>
   <field type="int">atomspertype</field>
   <field type="string">element</field>
   <field>mass</field>
   <field>valence</field>
   <field type="string">pseudopotential</field>
   <set>
    <rc><c>   7</c><c>C </c><c>     12.01100000</c><c>      4.00000000</c><c>  PAW_PBE C 08Apr2002                   </c></rc>
    <rc><c>   1</c><c>F </c><c>     18.99800000</c><c>      7.00000000</c><c>  PAW_PBE F 08Apr2002                   </c></rc>
    <rc><c>   7</c><c>H </c><c>      1.00000000</c><c>      1.00000000</c><c>  PAW_PBE H 15Jun2001                   </c></rc>
    <rc><c>   1</c><c>O </c><c>     16.00000000</c><c>      6.00000000</c><c>  PAW_PBE O 08Apr2002                   </c></rc>
   </set>
  </array>
 </atominfo>
 <structure name="initialpos" >
  <crystal>
   <varray name="basis" >
    <v>       7.75330000       0.00000000       0.00000000 </v>
    <v>       0.00000000      11.81980000       0.00000000 </v>
    <v>       0.00000000       0.00000000      11.23080000 </v>
   </varray>
   <i name="volume">   1029.21808743 </i>
   <varray name="rec_basis" >
    <v>       0.12897734       0.00000000       0.00000000 </v>
    <v>       0.00000000       0.08460380       0.00000000 </v>
    <v>       0.00000000       0.00000000       0.08904085 </v>
   </varray>
  </crystal>
  <varray name="positions" >
   <v>       0.49766628       0.71212418       0.54377802 </v>
   <v>       0.49959992       0.58501825       0.54382026 </v>
   <v>       0.50800930       0.52658262       0.43511421 </v>
   <v>       0.50948169       0.40842251       0.43560562 </v>
   <v>       0.50323632       0.34477409       0.53896001 </v>
   <v>       0.49519871       0.40281373       0.64738694 </v>
   <v>       0.49332285       0.52106937       0.64882015 </v>
   <v>       0.51772901       0.35623285       0.32589303 </v>
   <v>       0.61369220       0.74638399       0.50042909 </v>
   <v>       0.38641505       0.74489715       0.49369551 </v>
   <v>       0.49142581       0.74490983       0.63510168 </v>
   <v>       0.51985112       0.53111248       0.26577645 </v>
   <v>       0.50510968       0.25273353       0.53368261 </v>
   <v>       0.48986206       0.35532152       0.73057843 </v>
   <v>       0.48652469       0.56564964       0.73394693 </v>
   <v>       0.51443606       0.58615703       0.33044093 </v>
  </varray>
  <varray name="velocities" >
   <v>      -0.00160997       0.00058540      -0.00060446 </v>
   <v>      -0.00026715       0.00002179       0.00032457 </v>
   <v>      -0.00013735      -0.00017695       0.00026569 </v>
   <v>       0.00144557      -0.00066978       0.00023944 </v>
   <v>       0.00032640      -0.00021828      -0.00083353 </v>
   <v>       0.00045598      -0.00005503      -0.00011885 </v>
   <v>      -0.00037798      -0.00048176       0.00104036 </v>
   <v>      -0.00015027       0.00021523      -0.00053998 </v>
   <v>      -0.00430723      -0.00146568      -0.00127090 </v>
   <v>       0.00285302       0.00047594       0.00053921 </v>
   <v>      -0.00422121      -0.00094844       0.00206344 </v>
   <v>       0.00112357       0.00025564       0.00308815 </v>
   <v>       0.00068219       0.00158854       0.00085995 </v>
   <v>       0.00141536       0.00264244      -0.00190958 </v>
   <v>      -0.00022178      -0.00209550       0.00026586 </v>
   <v>       0.00046917       0.00046276       0.00017877 </v>
  </varray>
 </structure>
 <calculation>
  <scstep>
   <time name="diag">    0.09    0.10</time>
   <time name="diis">    0.17    0.17</time>
   <time name="orth">    0.01    0.01</time>
   <time name="total">    0.53    0.54</time>
   <energy>
    <i name="alphaZ">      9.74996640 </i>
    <i name="ewald">   1829.77495142 </i>
    <i name="hartreedc">  -3516.39912223 </i>
    <i name="XCdc">    172.34752081 </i>
    <i name="pawpsdc">   1660.34980416 </i>
    <i name="pawaedc">  -1671.29803938 </i>
    <i name="eentropy">      0.00579791 </i>
    <i name="bandstr">    102.41088225 </i>
    <i name="atom">   2209.41246822 </i>
    <i name="e_fr_energy">    796.35422956 </i>
    <i name="e_wo_entrp">    796.34843164 </i>
    <i name="e_0_energy">    796.35229692 </i>
   </energy>
  </scstep>
  <scstep>
   <time name="diag">    0.09    0.09</time>
   <time name="diis">    0.14    0.15</time>
   <time name="orth">    0.01    0.01</time>
   <time name="total">    0.24    0.24</time>
   <energy>
    <i name="e_fr_energy">    399.94383397 </i>
    <i name="e_wo_entrp">    399.93585476 </i>
    <i name="e_0_energy">    399.94117424 </i>
   </energy>
  </scstep>
  <scstep>
   <time name="diag">    0.08    0.08</time>
   <time name="diis">    0.17    0.17</time>
   <time name="orth">    0.01    0.01</time>
   <time name="total">    0.25    0.26</time>
   <energy>
    <i name="e_fr_energy">    256.21810090 </i>
    <i name="e_wo_entrp">    256.22803606 </i>
    <i name="e_0_energy">    256.22141262 </i>
   </energy>
  </scstep>
  <scstep>
   <time name="diag">    0.06    0.06</time>
   <time name="diis">    0.15    0.15</time>
   <time name="orth">    0.00    0.00</time>
   <time name="total">    0.22    0.22</time>
   <energy>
    <i name="e_fr_energy">     80.92751373 </i>
    <i name="e_wo_entrp">     80.91200174 </i>
    <i name="e_0_energy">     80.92234306 </i>
   </energy>
  </scstep>
  <scstep>
   <time name="diag">    0.08    0.09</time>
   <time name="diis">    0.19    0.19</time>
   <time name="orth">    0.00    0.00</time>
   <time name="total">    0.28    0.28</time>
   <energy>
    <i name="e_fr_energy">      0.41943449 </i>
    <i name="e_wo_entrp">      0.41356359 </i>
    <i name="e_0_energy">      0.41747752 </i>
   </energy>
  </scstep>
  <scstep>
   <time name="diag">    0.09    0.10</time>
   <time name="diis">    0.19    0.19</time>
   <time name="orth">    0.00    0.00</time>
   <time name="total">    0.29    0.29</time>
   <energy>
    <i name="e_fr_energy">    -67.93148417 </i>
    <i name="e_wo_entrp">    -67.93728208 </i>
    <i name="e_0_energy">    -67.93341681 </i>
   </energy>
  </scstep>
  <scstep>
   <time name="diag">    0.07    0.07</time>
   <time name="diis">    0.17    0.17</time>
   <time name="orth">    0.01    0.01</time>
   <time name="total">    0.25    0.25</time>
   <energy>
    <i name="e_fr_energy">    -94.17376643 </i>
    <i name="e_wo_entrp">    -94.17956433 </i>
    <i name="e_0_energy">    -94.17569906 </i>
   </energy>
  </scstep>
  <scstep>
   <time name="diag">    0.08    0.08</time>
   <time name="diis">    0.20    0.21</time>
   <time name="orth">    0.01    0.01</time>
   <time name="total">    0.29    0.30</time>
   <energy>
    <i name="e_fr_energy">   -104.92618795 </i>
    <i name="e_wo_entrp">   -104.93198585 </i>
    <i name="e_0_energy">   -104.92812058 </i>
   </energy>
  </scstep>
  <scstep>
   <time name="diag">    0.09    0.09</time>
   <time name="diis">    0.14    0.16</time>
   <time name="orth">    0.00    0.00</time>
   <time name="total">    0.23    0.26</time>
   <energy>
    <i name="e_fr_energy">   -107.61085107 </i>
    <i name="e_wo_entrp">   -107.61664898 </i>
    <i name="e_0_energy">   -107.61278371 </i>
   </energy>
  </scstep>
  <scstep>
   <time name="diag">    0.06    0.06</time>
   <time name="diis">    0.18    0.18</time>
   <time name="orth">    0.01    0.01</time>
   <time name="total">    0.25    0.25</time>
   <energy>
    <i name="e_fr_energy">   -108.58753496 </i>
    <i name="e_wo_entrp">   -108.59333286 </i>
    <i name="e_0_energy">   -108.58946759 </i>
   </energy>
  </scstep>
  <scstep>
   <time name="diag">    0.09    0.09</time>
   <time name="diis">    0.20    0.20</time>
   <time name="orth">    0.01    0.01</time>
   <time name="total">    0.30    0.30</time>
   <energy>
    <i name="e_fr_energy">   -108.95032645 </i>
    <i name="e_wo_entrp">   -108.95612435 </i>
    <i name="e_0_energy">   -108.95225908 </i>
   </energy>
  </scstep>
  <scstep>
   <time name="diag">    0.07    0.08</time>
   <time name="diis">    0.16    0.16</time>
   <time name="orth">    0.00    0.00</time>
   <time name="total">    0.24    0.24</time>
   <energy>
    <i name="e_fr_energy">   -109.10295622 </i>
    <i name="e_wo_entrp">   -109.10875412 </i>
    <i name="e_0_energy">   -109.10488885 </i>
   </energy>
  </scstep>
  <scstep>
   <time name="diag">    0.09    0.09</time>
   <time name="diis">    0.19    0.20</time>
   <time name="orth">    0.01    0.01</time>
   <time name="total">    0.28    0.29</time>
   <energy>
    <i name="e_fr_energy">   -109.16341269 </i>
    <i name="e_wo_entrp">   -109.16921059 </i>
    <i name="e_0_energy">   -109.16534532 </i>
   </energy>
  </scstep>
  <scstep>
   <time name="diag">    0.09    0.09</time>
   <time name="diis">    0.19    0.19</time>
   <time name="orth">    0.00    0.00</time>
   <time name="total">    0.29    0.29</time>
   <energy>
    <i name="e_fr_energy">   -109.18995471 </i>
    <i name="e_wo_entrp">   -109.19575262 </i>
    <i name="e_0_energy">   -109.19188735 </i>
   </energy>
  </scstep>
  <scstep>
   <time name="diag">    0.07    0.07</time>
   <time name="diis">    0.33    0.33</time>
   <time name="orth">    0.00    0.00</time>
   <time name="total">    0.40    0.41</time>
   <energy>
    <i name="e_fr_energy">   -109.20675643 </i>
    <i name="e_wo_entrp">   -109.21255434 </i>
    <i name="e_0_energy">   -109.20868907 </i>
   </energy>
  </scstep>
  <scstep>
   <time name="diag">    0.09    0.09</time>
   <time name="diis">    0.31    0.31</time>
   <time name="orth">    0.00    0.00</time>
   <time name="total">    0.41    0.41</time>
   <energy>
    <i name="e_fr_energy">   -109.20911181 </i>
    <i name="e_wo_entrp">   -109.21490971 </i>
    <i name="e_0_energy">   -109.21104444 </i>
   </energy>
  </scstep>
  <scstep>
   <time name="diag">    0.08    0.08</time>
   <time name="diis">    0.34    0.35</time>
   <time name="orth">    0.00    0.00</time>
   <time name="total">    0.43    0.44</time>
   <energy>
    <i name="e_fr_energy">   -109.20956634 </i>
    <i name="e_wo_entrp">   -109.21536425 </i>
    <i name="e_0_energy">   -109.21149898 </i>
   </energy>
  </scstep>
  <scstep>
   <time name="diag">    0.07    0.07</time>
   <time name="diis">    0.32    0.33</time>
   <time name="orth">    0.01    0.01</time>
   <time name="total">    0.40    0.40</time>
   <energy>
    <i name="e_fr_energy">   -109.20957967 </i>
    <i name="e_wo_entrp">   -109.21537757 </i>
    <i name="e_0_energy">   -109.21151230 </i>
   </energy>
  </scstep>
  <scstep>
   <time name="diag">    0.09    0.10</time>
   <time name="diis">    0.20    0.20</time>
   <time name="orth">    0.00    0.00</time>
   <time name="total">    0.30    0.30</time>
   <energy>
    <i name="e_fr_energy">   -109.20958056 </i>
    <i name="e_wo_entrp">   -109.21537846 </i>
    <i name="e_0_energy">   -109.21151319 </i>
   </energy>
  </scstep>
  <scstep>
   <time name="diag">    0.08    0.08</time>
   <time name="diis">    0.18    0.18</time>
   <time name="orth">    0.00    0.00</time>
   <time name="total">    0.30    0.31</time>
   <energy>
    <i name="e_fr_energy">   -109.20958088 </i>
    <i name="e_wo_entrp">   -109.21537878 </i>
    <i name="e_0_energy">   -109.21151351 </i>
   </energy>
  </scstep>
  <scstep>
   <time name="diag">    0.08    0.08</time>
   <time name="diis">    0.46    0.47</time>
   <time name="orth">    0.00    0.00</time>
   <time name="total">    0.82    0.83</time>
   <energy>
    <i name="e_fr_energy">   -101.64467296 </i>
    <i name="e_wo_entrp">   -101.65047087 </i>
    <i name="e_0_energy">   -101.64660560 </i>
   </energy>
  </scstep>
  <scstep>
   <time name="diag">    0.06    0.06</time>
   <time name="diis">    0.54    0.55</time>
   <time name="orth">    0.01    0.01</time>
   <time name="total">    0.91    0.92</time>
   <energy>
    <i name="e_fr_energy">    -99.87723076 </i>
    <i name="e_wo_entrp">    -99.88302866 </i>
    <i name="e_0_energy">    -99.87916339 </i>
   </energy>
  </scstep>
  <scstep>
   <time name="diag">    0.08    0.08</time>
   <time name="diis">    0.50    0.51</time>
   <time name="orth">    0.00    0.00</time>
   <time name="total">    0.87    0.88</time>
   <energy>
    <i name="e_fr_energy">    -99.59632916 </i>
    <i name="e_wo_entrp">    -99.60212707 </i>
    <i name="e_0_energy">    -99.59826180 </i>
   </energy>
  </scstep>
  <scstep>
   <time name="diag">    0.09    0.09</time>
   <time name="diis">    0.42    0.42</time>
   <time name="orth">    0.00    0.00</time>
   <time name="total">    0.82    0.83</time>
   <energy>
    <i name="e_fr_energy">    -99.56237398 </i>
    <i name="e_wo_entrp">    -99.56817188 </i>
    <i name="e_0_energy">    -99.56430661 </i>
   </energy>
  </scstep>
  <scstep>
   <time name="diag">    0.07    0.07</time>
   <time name="diis">    0.34    0.34</time>
   <time name="orth">    0.00    0.00</time>
   <time name="total">    0.73    0.74</time>
   <energy>
    <i name="e_fr_energy">    -99.55591675 </i>
    <i name="e_wo_entrp">    -99.56171465 </i>
    <i name="e_0_energy">    -99.55784938 </i>
   </energy>
  </scstep>
  <scstep>
   <time name="diag">    0.09    0.09</time>
   <time name="diis">    0.44    0.45</time>
   <time name="orth">    0.00    0.00</time>
   <time name="total">    0.81    0.82</time>
   <energy>
    <i name="e_fr_energy">    -99.55569996 </i>
    <i name="e_wo_entrp">    -99.56149786 </i>
    <i name="e_0_energy">    -99.55763259 </i>
   </energy>
  </scstep>
  <scstep>
   <time name="diag">    0.07    0.07</time>
   <time name="diis">    0.27    0.28</time>
   <time name="orth">    0.00    0.00</time>
   <time name="total">    0.59    0.59</time>
   <energy>
    <i name="e_fr_energy">    -99.56037780 </i>
    <i name="e_wo_entrp">    -99.56617571 </i>
    <i name="e_0_energy">    -99.56231044 </i>
   </energy>
  </scstep>
  <scstep>
   <time name="diag">    0.08    0.08</time>
   <time name="diis">    0.33    0.33</time>
   <time name="orth">    0.01    0.01</time>
   <time name="total">    0.68    0.68</time>
   <energy>
    <i name="e_fr_energy">    -99.56645802 </i>
    <i name="e_wo_entrp">    -99.57225593 </i>
    <i name="e_0_energy">    -99.56839066 </i>
   </energy>
  </scstep>
  <scstep>
   <time name="diag">    0.08    0.09</time>
   <time name="diis">    0.32    0.32</time>
   <time name="orth">    0.01    0.01</time>
   <time name="total">    0.67    0.68</time>
   <energy>
    <i name="e_fr_energy">    -99.57068305 </i>
    <i name="e_wo_entrp">    -99.57648095 </i>
    <i name="e_0_energy">    -99.57261568 </i>
   </energy>
  </scstep>
  <scstep>
   <time name="diag">    0.08    0.08</time>
   <time name="diis">    0.34    0.34</time>
   <time name="orth">    0.01    0.01</time>
   <time name="total">    0.69    0.70</time>
   <energy>
    <i name="e_fr_energy">    -99.57315037 </i>
    <i name="e_wo_entrp">    -99.57894828 </i>
    <i name="e_0_energy">    -99.57508301 </i>
   </energy>
  </scstep>
  <scstep>
   <time name="diag">    0.08    0.08</time>
   <time name="diis">    0.29    0.29</time>
   <time name="orth">    0.01    0.01</time>
   <time name="total">    0.63    0.64</time>
   <energy>
    <i name="e_fr_energy">    -99.57368241 </i>
    <i name="e_wo_entrp">    -99.57948031 </i>
    <i name="e_0_energy">    -99.57561504 </i>
   </energy>
  </scstep>
  <scstep>
   <time name="diag">    0.07    0.08</time>
   <time name="diis">    0.27    0.27</time>
   <time name="orth">    0.01    0.01</time>
   <time name="total">    0.63    0.64</time>
   <energy>
    <i name="e_fr_energy">    -99.57384856 </i>
    <i name="e_wo_entrp">    -99.57964646 </i>
    <i name="e_0_energy">    -99.57578119 </i>
   </energy>
  </scstep>
  <scstep>
   <time name="diag">    0.08    0.08</time>
   <time name="diis">    0.25    0.25</time>
   <time name="orth">    0.01    0.01</time>
   <time name="total">    0.61    0.61</time>
   <energy>
    <i name="e_fr_energy">    -99.57393594 </i>
    <i name="e_wo_entrp">    -99.57973385 </i>
    <i name="e_0_energy">    -99.57586858 </i>
   </energy>
  </scstep>
  <scstep>
   <time name="diag">    0.09    0.09</time>
   <time name="diis">    0.23    0.24</time>
   <time name="orth">    0.01    0.01</time>
   <time name="total">    0.61    0.62</time>
   <energy>
    <i name="e_fr_energy">    -99.57397699 </i>
    <i name="e_wo_entrp">    -99.57977490 </i>
    <i name="e_0_energy">    -99.57590963 </i>
   </energy>
  </scstep>
  <scstep>
   <time name="diag">    0.08    0.08</time>
   <time name="diis">    0.16    0.16</time>
   <time name="orth">    0.00    0.00</time>
   <time name="total">    0.50    0.51</time>
   <energy>
    <i name="e_fr_energy">    -99.57399254 </i>
    <i name="e_wo_entrp">    -99.57979044 </i>
    <i name="e_0_energy">    -99.57592517 </i>
   </energy>
  </scstep>
  <scstep>
   <time name="diag">    0.04    0.04</time>
   <time name="diis">    0.17    0.17</time>
   <time name="orth">    0.01    0.01</time>
   <time name="total">    0.42    0.43</time>
   <energy>
    <i name="alphaZ">      9.74996640 </i>
    <i name="ewald">   1829.77495142 </i>
    <i name="hartreedc">  -3707.44209435 </i>
    <i name="XCdc">    181.29540584 </i>
    <i name="pawpsdc">   4092.32835582 </i>
    <i name="pawaedc">  -4104.54869728 </i>
    <i name="eentropy">      0.00579791 </i>
    <i name="bandstr">   -610.15015006 </i>
    <i name="atom">   2209.41246822 </i>
    <i name="e_fr_energy">    -99.57399608 </i>
    <i name="e_wo_entrp">    -99.57979399 </i>
    <i name="e_0_energy">    -99.57592872 </i>
   </energy>
  </scstep>
  <structure>
   <crystal>
    <varray name="basis" >
     <v>       7.75330000       0.00000000       0.00000000 </v>
     <v>       0.00000000      11.81980000       0.00000000 </v>
     <v>       0.00000000       0.00000000      11.23080000 </v>
    </varray>
    <i name="volume">   1029.21808743 </i>
    <varray name="rec_basis" >
     <v>       0.12897734       0.00000000       0.00000000 </v>
     <v>       0.00000000       0.08460380       0.00000000 </v>
     <v>       0.00000000       0.00000000       0.08904085 </v>
    </varray>
   </crystal>
   <varray name="positions" >
    <v>       0.49766628       0.71212418       0.54377802 </v>
    <v>       0.49959992       0.58501825       0.54382026 </v>
    <v>       0.50800930       0.52658262       0.43511421 </v>
    <v>       0.50948169       0.40842251       0.43560562 </v>
    <v>       0.50323632       0.34477409       0.53896001 </v>
    <v>       0.49519871       0.40281373       0.64738694 </v>
    <v>       0.49332285       0.52106937       0.64882015 </v>
    <v>       0.51772901       0.35623285       0.32589303 </v>
    <v>       0.61369220       0.74638399       0.50042909 </v>
    <v>       0.38641505       0.74489715       0.49369551 </v>
    <v>       0.49142581       0.74490983       0.63510168 </v>
    <v>       0.51985112       0.53111248       0.26577645 </v>
    <v>       0.50510968       0.25273353       0.53368261 </v>
    <v>       0.48986206       0.35532152       0.73057843 </v>
    <v>       0.48652469       0.56564964       0.73394693 </v>
    <v>       0.51443606       0.58615703       0.33044093 </v>
   </varray>
  </structure>
  <varray name="forces" >
   <v>       0.00292243      -0.02097433       0.00247957 </v>
   <v>       0.00463404       0.01872107      -0.00212630 </v>
   <v>      -0.00188403       0.00360850      -0.02136563 </v>
   <v>      -0.01295380      -0.03470709       0.01068257 </v>
   <v>      -0.00512824       0.03811063       0.02793797 </v>
   <v>       0.00502826      -0.00565321       0.00057182 </v>
   <v>       0.00337446      -0.00764779       0.01293025 </v>
   <v>      -0.01513850      -0.01851294      -0.00437766 </v>
   <v>      -0.00409793       0.01877349       0.00263624 </v>
   <v>       0.00458061       0.01766040       0.00139810 </v>
   <v>       0.00194578       0.00710119      -0.01784693 </v>
   <v>       0.00207476       0.01627675      -0.05445027 </v>
   <v>      -0.00514684      -0.00074549       0.01048868 </v>
   <v>       0.00646954       0.01876187      -0.02153677 </v>
   <v>       0.00638227      -0.00930221      -0.04090277 </v>
   <v>      -0.00275616      -0.02236820      -0.00490622 </v>
  </varray>
  <varray name="stress" >
   <v>      -0.39128852      -0.01281078       0.00812314 </v>
   <v>      -0.01281079      -0.30448159       0.02949543 </v>
   <v>       0.00812313       0.02949541      -0.43623159 </v>
  </varray>
  <energy>
   <i name="e_fr_energy">    -99.57399608 </i>
   <i name="e_wo_entrp">    -99.57979399 </i>
   <i name="e_0_energy">    -99.57592872 </i>
   <i name="kinetic">      0.97032499 </i>
   <i name="lattice kinetic">      0.00000000 </i>
   <i name="nosepot">      0.00000000 </i>
   <i name="nosekinetic">      0.00000000 </i>
   <i name="total">    -98.60367109 </i>
  </energy>
  <time name="totalsc">   18.46   18.80</time>
 </calculation>
 <calculation>
  <scstep>
   <time name="diag">    0.07    0.07</time>
   <time name="diis">    0.30    0.30</time>
   <time name="orth">    0.01    0.01</time>
   <time name="total">    0.67    0.69</time>
   <energy>
    <i name="alphaZ">      9.74996640 </i>
    <i name="ewald">   1830.94602688 </i>
    <i name="hartreedc">  -3708.33832913 </i>
    <i name="XCdc">    181.31720623 </i>
    <i name="pawpsdc">   4092.31933608 </i>
    <i name="pawaedc">  -4104.53968329 </i>
    <i name="eentropy">      0.00579791 </i>
    <i name="bandstr">   -610.32931559 </i>
    <i name="atom">   2209.41246822 </i>
    <i name="e_fr_energy">    -99.45652630 </i>
    <i name="e_wo_entrp">    -99.46232420 </i>
    <i name="e_0_energy">    -99.45845893 </i>
   </energy>
  </scstep>
  <scstep>
   <time name="diag">    0.07    0.07</time>
   <time name="diis">    0.28    0.29</time>
   <time name="orth">    0.01    0.01</time>
   <time name="total">    0.66    0.67</time>
   <energy>
    <i name="e_fr_energy">    -99.48017616 </i>
    <i name="e_wo_entrp">    -99.48597406 </i>
    <i name="e_0_energy">    -99.48210879 </i>
   </energy>
  </scstep>
  <scstep>
   <time name="diag">    0.06    0.06</time>
   <time name="diis">    0.30    0.31</time>
   <time name="orth">    0.01    0.01</time>
   <time name="total">    0.66    0.68</time>
   <energy>
    <i name="e_fr_energy">    -99.48179304 </i>
    <i name="e_wo_entrp">    -99.48759095 </i>
    <i name="e_0_energy">    -99.48372568 </i>
   </energy>
  </scstep>
  <scstep>
   <time name="diag">    0.08    0.08</time>
   <time name="diis">    0.34    0.35</time>
   <time name="orth">    0.00    0.00</time>
   <time name="total">    0.71    0.72</time>
   <energy>
    <i name="e_fr_energy">    -99.48196520 </i>
    <i name="e_wo_entrp">    -99.48776311 </i>
    <i name="e_0_energy">    -99.48389784 </i>
   </energy>
  </scstep>
  <scstep>
   <time name="diag">    0.07    0.07</time>
   <time name="diis">    0.27    0.27</time>
   <time name="orth">    0.01    0.01</time>
   <time name="total">    0.58    0.59</time>
   <energy>
    <i name="e_fr_energy">    -99.48212297 </i>
    <i name="e_wo_entrp">    -99.48792087 </i>
    <i name="e_0_energy">    -99.48405560 </i>
   </energy>
  </scstep>
  <scstep>
   <time name="diag">    0.08    0.08</time>
   <time name="diis">    0.35    0.35</time>
   <time name="orth">    0.00    0.00</time>
   <time name="total">    0.70    0.71</time>
   <energy>
    <i name="e_fr_energy">    -99.48216101 </i>
    <i name="e_wo_entrp">    -99.48795891 </i>
    <i name="e_0_energy">    -99.48409364 </i>
   </energy>
  </scstep>
  <scstep>
   <time name="diag">    0.08    0.08</time>
   <time name="diis">    0.29    0.30</time>
   <time name="orth">    0.01    0.01</time>
   <time name="total">    0.64    0.67</time>
   <energy>
    <i name="e_fr_energy">    -99.48219131 </i>
    <i name="e_wo_entrp">    -99.48798922 </i>
    <i name="e_0_energy">    -99.48412395 </i>
   </energy>
  </scstep>
  <scstep>
   <time name="diag">    0.08    0.09</time>
   <time name="diis">    0.24    0.24</time>
   <time name="orth">    0.00    0.00</time>
   <time name="total">    0.59    0.60</time>
   <energy>
    <i name="e_fr_energy">    -99.48223142 </i>
    <i name="e_wo_entrp">    -99.48802933 </i>
    <i name="e_0_energy">    -99.48416406 </i>
   </energy>
  </scstep>
  <scstep>
   <time name="diag">    0.08    0.08</time>
   <time name="diis">    0.23    0.24</time>
   <time name="orth">    0.00    0.00</time>
   <time name="total">    0.59    0.60</time>
   <energy>
    <i name="e_fr_energy">    -99.48225343 </i>
    <i name="e_wo_entrp">    -99.48805133 </i>
    <i name="e_0_energy">    -99.48418606 </i>
   </energy>
  </scstep>
  <scstep>
   <time name="diag">    0.05    0.05</time>
   <time name="diis">    0.22    0.22</time>
   <time name="orth">    0.00    0.00</time>
   <time name="total">    0.56    0.58</time>
   <energy>
    <i name="e_fr_energy">    -99.48230274 </i>
    <i name="e_wo_entrp">    -99.48810064 </i>
    <i name="e_0_energy">    -99.48423537 </i>
   </energy>
  </scstep>
  <scstep>
   <time name="diag">    0.06    0.07</time>
   <time name="diis">    0.21    0.22</time>
   <time name="orth">    0.00    0.00</time>
   <time name="total">    0.58    0.59</time>
   <energy>
    <i name="e_fr_energy">    -99.48231626 </i>
    <i name="e_wo_entrp">    -99.48811417 </i>
    <i name="e_0_energy">    -99.48424890 </i>
   </energy>
  </scstep>
  <scstep>
   <time name="diag">    0.09    0.09</time>
   <time name="diis">    0.20    0.21</time>
   <time name="orth">    0.00    0.00</time>
   <time name="total">    0.58    0.60</time>
   <energy>
    <i name="e_fr_energy">    -99.48232762 </i>
    <i name="e_wo_entrp">    -99.48812552 </i>
    <i name="e_0_energy">    -99.48426025 </i>
   </energy>
  </scstep>
  <scstep>
   <time name="diag">    0.08    0.08</time>
   <time name="diis">    0.16    0.17</time>
   <time name="orth">    0.00    0.00</time>
   <time name="total">    0.47    0.48</time>
   <energy>
    <i name="alphaZ">      9.74996640 </i>
    <i name="ewald">   1830.94602688 </i>
    <i name="hartreedc">  -3708.87430664 </i>
    <i name="XCdc">    181.33404210 </i>
    <i name="pawpsdc">   4103.27698063 </i>
    <i name="pawaedc">  -4115.50065764 </i>
    <i name="eentropy">      0.00579791 </i>
    <i name="bandstr">   -609.83265386 </i>
    <i name="atom">   2209.41246822 </i>
    <i name="e_fr_energy">    -99.48233600 </i>
    <i name="e_wo_entrp">    -99.48813391 </i>
    <i name="e_0_energy">    -99.48426864 </i>
   </energy>
  </scstep>
  <structure>
   <crystal>
    <varray name="basis" >
     <v>       7.75330000       0.00000000       0.00000000 </v>
     <v>       0.00000000      11.81980000       0.00000000 </v>
     <v>       0.00000000       0.00000000      11.23080000 </v>
    </varray>
    <i name="volume">   1029.21808743 </i>
    <varray name="rec_basis" >
     <v>       0.12897734       0.00000000       0.00000000 </v>
     <v>       0.00000000       0.08460380       0.00000000 </v>
     <v>       0.00000000       0.00000000       0.08904085 </v>
    </varray>
   </crystal>
   <varray name="positions" >
    <v>       0.49738555       0.71197571       0.54425290 </v>
    <v>       0.49917609       0.58421139       0.54395559 </v>
    <v>       0.50780018       0.52720253       0.43502490 </v>
    <v>       0.51042088       0.40817895       0.43574982 </v>
    <v>       0.50223357       0.34471826       0.53820360 </v>
    <v>       0.49470606       0.40278567       0.64710493 </v>
    <v>       0.49386943       0.52163433       0.64899968 </v>
    <v>       0.51754964       0.35589894       0.32535894 </v>
    <v>       0.61578059       0.74752204       0.50146747 </v>
    <v>       0.38383420       0.74634083       0.49334710 </v>
    <v>       0.49371374       0.74423386       0.63588655 </v>
    <v>       0.52338108       0.53166467       0.26474713 </v>
    <v>       0.50770083       0.25266098       0.53591912 </v>
    <v>       0.48405042       0.35690681       0.72845959 </v>
    <v>       0.48964630       0.56551254       0.72979554 </v>
    <v>       0.51501550       0.58638741       0.33144484 </v>
   </varray>
  </structure>
  <varray name="forces" >
   <v>      -0.01633237       0.30002974      -0.49290067 </v>
   <v>       0.08344347       0.69635890      -0.18210390 </v>
   <v>       0.03896172      -0.80119642       0.13056406 </v>
   <v>      -0.11191498       0.30414644      -0.47881385 </v>
   <v>       0.13354578      -0.01325544       0.62753394 </v>
   <v>      -0.05105062       0.72428114      -0.74526498 </v>
   <v>       0.04149638      -1.35800207      -1.40922952 </v>
   <v>       0.03259437       0.08612348       0.13121736 </v>
   <v>      -0.45924667      -0.22576304       0.13517948 </v>
   <v>       0.59697425      -0.25036075       0.40141773 </v>
   <v>      -0.10769531       0.01057559      -0.02624570 </v>
   <v>      -0.06500196       0.42373484       0.54977370 </v>
   <v>      -0.09091428      -0.00570403      -0.13930519 </v>
   <v>       0.04878131      -0.48963070       0.72389352 </v>
   <v>      -0.10223962       0.77610785       1.52726081 </v>
   <v>       0.04849399      -0.16782749      -0.87251717 </v>
  </varray>
  <varray name="stress" >
   <v>      -1.86083239       0.15383127      -0.57629018 </v>
   <v>       0.15383129      -0.93080279      -0.63174750 </v>
   <v>      -0.57629019      -0.63174751       3.02532124 </v>
  </varray>
  <energy>
   <i name="e_fr_energy">    -99.48233600 </i>
   <i name="e_wo_entrp">    -99.48813391 </i>
   <i name="e_0_energy">    -99.48426864 </i>
   <i name="kinetic">      0.88360561 </i>
   <i name="lattice kinetic">      0.00000000 </i>
   <i name="nosepot">      0.00002150 </i>
   <i name="nosekinetic">      0.00000004 </i>
   <i name="total">    -98.59870886 </i>
  </energy>
  <time name="totalsc">    9.23    9.48</time>
 </calculation>
 <calculation>
  <scstep>
   <time name="diag">    0.07    0.07</time>
   <time name="diis">    0.29    0.30</time>
   <time name="orth">    0.01    0.01</time>
   <time name="total">    0.67    0.68</time>
   <energy>
    <i name="alphaZ">      9.74996640 </i>
    <i name="ewald">   1831.73769879 </i>
    <i name="hartreedc">  -3709.91123131 </i>
    <i name="XCdc">    181.37093168 </i>
    <i name="pawpsdc">   4114.00403150 </i>
    <i name="pawaedc">  -4126.23120220 </i>
    <i name="eentropy">      0.00579791 </i>
    <i name="bandstr">   -609.43482696 </i>
    <i name="atom">   2209.41246822 </i>
    <i name="e_fr_energy">    -99.29636598 </i>
    <i name="e_wo_entrp">    -99.30216389 </i>
    <i name="e_0_energy">    -99.29829862 </i>
   </energy>
  </scstep>
  <scstep>
   <time name="diag">    0.07    0.07</time>
   <time name="diis">    0.29    0.30</time>
   <time name="orth">    0.01    0.01</time>
   <time name="total">    0.67    0.69</time>
   <energy>
    <i name="e_fr_energy">    -99.29748181 </i>
    <i name="e_wo_entrp">    -99.30327971 </i>
    <i name="e_0_energy">    -99.29941444 </i>
   </energy>
  </scstep>
  <scstep>
   <time name="diag">    0.06    0.06</time>
   <time name="diis">    0.30    0.31</time>
   <time name="orth">    0.00    0.01</time>
   <time name="total">    0.67    0.68</time>
   <energy>
    <i name="e_fr_energy">    -99.29755571 </i>
    <i name="e_wo_entrp">    -99.30335362 </i>
    <i name="e_0_energy">    -99.29948835 </i>
   </energy>
  </scstep>
  <scstep>
   <time name="diag">    0.06    0.06</time>
   <time name="diis">    0.34    0.34</time>
   <time name="orth">    0.01    0.01</time>
   <time name="total">    0.69    0.70</time>
   <energy>
    <i name="e_fr_energy">    -99.29757242 </i>
    <i name="e_wo_entrp">    -99.30337033 </i>
    <i name="e_0_energy">    -99.29950506 </i>
   </energy>
  </scstep>
  <scstep>
   <time name="diag">    0.09    0.09</time>
   <time name="diis">    0.30    0.30</time>
   <time name="orth">    0.00    0.00</time>
   <time name="total">    0.66    0.67</time>
   <energy>
    <i name="e_fr_energy">    -99.29758178 </i>
    <i name="e_wo_entrp">    -99.30337968 </i>
    <i name="e_0_energy">    -99.29951441 </i>
   </energy>
  </scstep>
  <scstep>
   <time name="diag">    0.07    0.07</time>
   <time name="diis">    0.22    0.23</time>
   <time name="orth">    0.00    0.00</time>
   <time name="total">    0.49    0.50</time>
   <energy>
    <i name="alphaZ">      9.74996640 </i>
    <i name="ewald">   1831.73769879 </i>
    <i name="hartreedc">  -3709.71608120 </i>
    <i name="XCdc">    181.35603616 </i>
    <i name="pawpsdc">   4113.61469451 </i>
    <i name="pawaedc">  -4125.84384095 </i>
    <i name="eentropy">      0.00579791 </i>
    <i name="bandstr">   -609.61432405 </i>
    <i name="atom">   2209.41246822 </i>
    <i name="e_fr_energy">    -99.29758422 </i>
    <i name="e_wo_entrp">    -99.30338212 </i>
    <i name="e_0_energy">    -99.29951685 </i>
   </energy>
  </scstep>
  <structure>
   <crystal>
    <varray name="basis" >
     <v>       7.75330000       0.00000000       0.00000000 </v>
     <v>       0.00000000      11.81980000       0.00000000 </v>
     <v>       0.00000000       0.00000000      11.23080000 </v>
    </varray>
    <i name="volume">   1029.21808743 </i>
    <varray name="rec_basis" >
     <v>       0.12897734       0.00000000       0.00000000 </v>
     <v>       0.00000000       0.08460380       0.00000000 </v>
     <v>       0.00000000       0.00000000       0.08904085 </v>
    </varray>
   </crystal>
   <varray name="positions" >
    <v>       0.49710294       0.71184757       0.54469333 </v>
    <v>       0.49876072       0.58345181       0.54407870 </v>
    <v>       0.50759490       0.52776792       0.43494574 </v>
    <v>       0.51134825       0.40795601       0.43586058 </v>
    <v>       0.50124449       0.34466147       0.53749292 </v>
    <v>       0.49420793       0.40280677       0.64677044 </v>
    <v>       0.49442009       0.52210692       0.64907922 </v>
    <v>       0.51737222       0.35556868       0.32483161 </v>
    <v>       0.61729724       0.74847571       0.50262278 </v>
    <v>       0.38199611       0.74758004       0.49334438 </v>
    <v>       0.49586741       0.74356648       0.63664967 </v>
    <v>       0.52682988       0.53256268       0.26419095 </v>
    <v>       0.51017860       0.25258372       0.53803672 </v>
    <v>       0.47829942       0.35809233       0.72696352 </v>
    <v>       0.49264040       0.56600891       0.72695712 </v>
    <v>       0.51559849       0.58660915       0.33240268 </v>
   </varray>
  </structure>
  <varray name="forces" >
   <v>       0.02118543       0.50006341      -0.74126034 </v>
   <v>       0.13828875       1.35780123      -0.36698024 </v>
   <v>       0.09313365      -1.53224549       0.30652407 </v>
   <v>      -0.21134264       0.59489538      -0.92826711 </v>
   <v>       0.25803076      -0.13042269       1.15549728 </v>
   <v>      -0.08109718       1.23380807      -1.18286053 </v>
   <v>       0.01644156      -2.46009440      -2.41334938 </v>
   <v>       0.10024079       0.18510477       0.28942227 </v>
   <v>      -0.75890828      -0.40355868       0.18848210 </v>
   <v>       0.96426867      -0.43140951       0.65493694 </v>
   <v>      -0.20861969       0.00765767      -0.04344794 </v>
   <v>      -0.13437287       0.61466347       0.90485797 </v>
   <v>      -0.17575853       0.03183167      -0.27686305 </v>
   <v>       0.06070232      -0.82476937       1.19772733 </v>
   <v>      -0.14883205       1.37969059       2.69639524 </v>
   <v>       0.11686552      -0.13826096      -1.48519480 </v>
  </varray>
  <varray name="stress" >
   <v>      -2.84644977       0.37723552      -0.98822114 </v>
   <v>       0.37723551      -1.41925548      -1.21897824 </v>
   <v>      -0.98822116      -1.21897824       5.78807767 </v>
  </varray>
  <energy>
   <i name="e_fr_energy">    -99.29758422 </i>
   <i name="e_wo_entrp">    -99.30338212 </i>
   <i name="e_0_energy">    -99.29951685 </i>
   <i name="kinetic">      0.71375318 </i>
   <i name="lattice kinetic">      0.00000000 </i>
   <i name="nosepot">     -0.00190424 </i>
   <i name="nosekinetic">      0.00031703 </i>
   <i name="total">    -98.58541825 </i>
  </energy>
  <time name="totalsc">    5.10    5.25</time>
 </calculation>
 <calculation>
  <scstep>
   <time name="diag">    0.08    0.09</time>
   <time name="diis">    0.32    0.33</time>
   <time name="orth">    0.01    0.01</time>
   <time name="total">    0.67    0.68</time>
   <energy>
    <i name="alphaZ">      9.74996640 </i>
    <i name="ewald">   1831.28810520 </i>
    <i name="hartreedc">  -3709.35019051 </i>
    <i name="XCdc">    181.33242283 </i>
    <i name="pawpsdc">   4120.78017307 </i>
    <i name="pawaedc">  -4133.01729571 </i>
    <i name="eentropy">      0.00579791 </i>
    <i name="bandstr">   -609.40954374 </i>
    <i name="atom">   2209.41246822 </i>
    <i name="e_fr_energy">    -99.20809634 </i>
    <i name="e_wo_entrp">    -99.21389425 </i>
    <i name="e_0_energy">    -99.21002898 </i>
   </energy>
  </scstep>
  <scstep>
   <time name="diag">    0.08    0.08</time>
   <time name="diis">    0.32    0.32</time>
   <time name="orth">    0.01    0.01</time>
   <time name="total">    0.66    0.67</time>
   <energy>
    <i name="e_fr_energy">    -99.20879147 </i>
    <i name="e_wo_entrp">    -99.21458938 </i>
    <i name="e_0_energy">    -99.21072411 </i>
   </energy>
  </scstep>
  <scstep>
   <time name="diag">    0.08    0.08</time>
   <time name="diis">    0.32    0.32</time>
   <time name="orth">    0.00    0.00</time>
   <time name="total">    0.67    0.68</time>
   <energy>
    <i name="e_fr_energy">    -99.20897109 </i>
    <i name="e_wo_entrp">    -99.21476899 </i>
    <i name="e_0_energy">    -99.21090372 </i>
   </energy>
  </scstep>
  <scstep>
   <time name="diag">    0.08    0.08</time>
   <time name="diis">    0.35    0.36</time>
   <time name="orth">    0.00    0.00</time>
   <time name="total">    0.68    0.69</time>
   <energy>
    <i name="e_fr_energy">    -99.20901314 </i>
    <i name="e_wo_entrp">    -99.21481105 </i>
    <i name="e_0_energy">    -99.21094578 </i>
   </energy>
  </scstep>
  <scstep>
   <time name="diag">    0.09    0.09</time>
   <time name="diis">    0.26    0.26</time>
   <time name="orth">    0.00    0.00</time>
   <time name="total">    0.63    0.63</time>
   <energy>
    <i name="e_fr_energy">    -99.20902026 </i>
    <i name="e_wo_entrp">    -99.21481817 </i>
    <i name="e_0_energy">    -99.21095290 </i>
   </energy>
  </scstep>
  <scstep>
   <time name="diag">    0.06    0.07</time>
   <time name="diis">    0.20    0.20</time>
   <time name="orth">    0.00    0.00</time>
   <time name="total">    0.47    0.48</time>
   <energy>
    <i name="alphaZ">      9.74996640 </i>
    <i name="ewald">   1831.28810520 </i>
    <i name="hartreedc">  -3709.29436757 </i>
    <i name="XCdc">    181.33289755 </i>
    <i name="pawpsdc">   4114.36924588 </i>
    <i name="pawaedc">  -4126.60082687 </i>
    <i name="eentropy">      0.00579791 </i>
    <i name="bandstr">   -609.47231141 </i>
    <i name="atom">   2209.41246822 </i>
    <i name="e_fr_energy">    -99.20902470 </i>
    <i name="e_wo_entrp">    -99.21482260 </i>
    <i name="e_0_energy">    -99.21095733 </i>
   </energy>
  </scstep>
  <structure>
   <crystal>
    <varray name="basis" >
     <v>       7.75330000       0.00000000       0.00000000 </v>
     <v>       0.00000000      11.81980000       0.00000000 </v>
     <v>       0.00000000       0.00000000      11.23080000 </v>
    </varray>
    <i name="volume">   1029.21808743 </i>
    <varray name="rec_basis" >
     <v>       0.12897734       0.00000000       0.00000000 </v>
     <v>       0.00000000       0.08460380       0.00000000 </v>
     <v>       0.00000000       0.00000000       0.08904085 </v>
    </varray>
   </crystal>
   <varray name="positions" >
    <v>       0.49682147       0.71175330       0.54508188 </v>
    <v>       0.49835836       0.58278318       0.54417609 </v>
    <v>       0.50739838       0.52823030       0.43488867 </v>
    <v>       0.51225508       0.40777318       0.43590541 </v>
    <v>       0.50027968       0.34459579       0.53686383 </v>
    <v>       0.49369989       0.40291196       0.64635088 </v>
    <v>       0.49497308       0.52241319       0.64898643 </v>
    <v>       0.51720052       0.35524581       0.32431663 </v>
    <v>       0.61787108       0.74910165       0.50394280 </v>
    <v>       0.38135501       0.74846933       0.49390519 </v>
    <v>       0.49776503       0.74290412       0.63737726 </v>
    <v>       0.53011773       0.53396485       0.26441212 </v>
    <v>       0.51244191       0.25253241       0.53992078 </v>
    <v>       0.47261198       0.35860638       0.72649475 </v>
    <v>       0.49545464       0.56763375       0.72643215 </v>
    <v>       0.51619126       0.58682438       0.33328293 </v>
   </varray>
  </structure>
  <varray name="forces" >
   <v>       0.09449305       0.53960955      -0.75135025 </v>
   <v>       0.18520498       1.92631684      -0.57110088 </v>
   <v>       0.13007049      -2.15374911       0.48098325 </v>
   <v>      -0.29885511       0.79928576      -1.31877999 </v>
   <v>       0.37711970      -0.25691291       1.56782210 </v>
   <v>      -0.14717609       1.30994088      -1.00754462 </v>
   <v>      -0.04736709      -2.67737292      -2.09479323 </v>
   <v>       0.14033604       0.26502230       0.41745804 </v>
   <v>      -0.85745316      -0.49041481       0.15200823 </v>
   <v>       1.07352504      -0.50546162       0.74002772 </v>
   <v>      -0.29433041      -0.00345834      -0.06630369 </v>
   <v>      -0.17353001       0.54487549       0.91454437 </v>
   <v>      -0.25830999       0.08765174      -0.39580791 </v>
   <v>       0.12170857      -0.81353875       1.11161951 </v>
   <v>      -0.15114374       1.23746963       2.56045551 </v>
   <v>       0.13690297       0.15273377      -1.79805154 </v>
  </varray>
  <varray name="stress" >
   <v>      -3.19454002       0.49321195      -1.26237415 </v>
   <v>       0.49321194      -2.01038715      -2.15611439 </v>
   <v>      -1.26237416      -2.15611439       6.77489046 </v>
  </varray>
  <energy>
   <i name="e_fr_energy">    -99.20902470 </i>
   <i name="e_wo_entrp">    -99.21482260 </i>
   <i name="e_0_energy">    -99.21095733 </i>
   <i name="kinetic">      0.63048281 </i>
   <i name="lattice kinetic">      0.00000000 </i>
   <i name="nosepot">     -0.00963396 </i>
   <i name="nosekinetic">      0.00279569 </i>
   <i name="total">    -98.58538016 </i>
  </energy>
  <time name="totalsc">    5.01    5.16</time>
 </calculation>
 <calculation>
  <scstep>
   <time name="diag">    0.08    0.08</time>
   <time name="diis">    0.33    0.33</time>
   <time name="orth">    0.00    0.00</time>
   <time name="total">    0.68    0.69</time>
   <energy>
    <i name="alphaZ">      9.74996640 </i>
    <i name="ewald">   1829.97947022 </i>
    <i name="hartreedc">  -3707.86747733 </i>
    <i name="XCdc">    181.27600225 </i>
    <i name="pawpsdc">   4106.16179234 </i>
    <i name="pawaedc">  -4118.39339067 </i>
    <i name="eentropy">      0.00579791 </i>
    <i name="bandstr">   -609.54603319 </i>
    <i name="atom">   2209.41246822 </i>
    <i name="e_fr_energy">    -99.22140386 </i>
    <i name="e_wo_entrp">    -99.22720176 </i>
    <i name="e_0_energy">    -99.22333649 </i>
   </energy>
  </scstep>
  <scstep>
   <time name="diag">    0.08    0.09</time>
   <time name="diis">    0.35    0.36</time>
   <time name="orth">    0.00    0.00</time>
   <time name="total">    0.71    0.72</time>
   <energy>
    <i name="e_fr_energy">    -99.22159351 </i>
    <i name="e_wo_entrp">    -99.22739142 </i>
    <i name="e_0_energy">    -99.22352615 </i>
   </energy>
  </scstep>
  <scstep>
   <time name="diag">    0.08    0.08</time>
   <time name="diis">    0.33    0.33</time>
   <time name="orth">    0.00    0.01</time>
   <time name="total">    0.69    0.71</time>
   <energy>
    <i name="e_fr_energy">    -99.22165387 </i>
    <i name="e_wo_entrp">    -99.22745178 </i>
    <i name="e_0_energy">    -99.22358651 </i>
   </energy>
  </scstep>
  <scstep>
   <time name="diag">    0.08    0.09</time>
   <time name="diis">    0.31    0.31</time>
   <time name="orth">    0.00    0.00</time>
   <time name="total">    0.68    0.69</time>
   <energy>
    <i name="e_fr_energy">    -99.22166428 </i>
    <i name="e_wo_entrp">    -99.22746219 </i>
    <i name="e_0_energy">    -99.22359692 </i>
   </energy>
  </scstep>
  <scstep>
   <time name="diag">    0.09    0.09</time>
   <time name="diis">    0.20    0.20</time>
   <time name="orth">    0.00    0.00</time>
   <time name="total">    0.58    0.59</time>
   <energy>
    <i name="e_fr_energy">    -99.22166723 </i>
    <i name="e_wo_entrp">    -99.22746514 </i>
    <i name="e_0_energy">    -99.22359987 </i>
   </energy>
  </scstep>
  <scstep>
   <time name="diag">    0.05    0.05</time>
   <time name="diis">    0.20    0.20</time>
   <time name="orth">    0.01    0.01</time>
   <time name="total">    0.46    0.46</time>
   <energy>
    <i name="alphaZ">      9.74996640 </i>
    <i name="ewald">   1829.97947022 </i>
    <i name="hartreedc">  -3707.99735795 </i>
    <i name="XCdc">    181.28304604 </i>
    <i name="pawpsdc">   4108.36760829 </i>
    <i name="pawaedc">  -4120.60045727 </i>
    <i name="eentropy">      0.00579791 </i>
    <i name="bandstr">   -609.42221101 </i>
    <i name="atom">   2209.41246822 </i>
    <i name="e_fr_energy">    -99.22166915 </i>
    <i name="e_wo_entrp">    -99.22746706 </i>
    <i name="e_0_energy">    -99.22360178 </i>
   </energy>
  </scstep>
  <structure>
   <crystal>
    <varray name="basis" >
     <v>       7.75330000       0.00000000       0.00000000 </v>
     <v>       0.00000000      11.81980000       0.00000000 </v>
     <v>       0.00000000       0.00000000      11.23080000 </v>
    </varray>
    <i name="volume">   1029.21808743 </i>
    <varray name="rec_basis" >
     <v>       0.12897734       0.00000000       0.00000000 </v>
     <v>       0.00000000       0.08460380       0.00000000 </v>
     <v>       0.00000000       0.00000000       0.08904085 </v>
    </varray>
   </crystal>
   <varray name="positions" >
    <v>       0.49654782       0.71169549       0.54541925 </v>
    <v>       0.49797253       0.58224211       0.54423350 </v>
    <v>       0.50721388       0.52854888       0.43486616 </v>
    <v>       0.51313596       0.40764399       0.43585630 </v>
    <v>       0.49934798       0.34451245       0.53634387 </v>
    <v>       0.49317322       0.40310731       0.64585693 </v>
    <v>       0.49552414       0.52253905       0.64874320 </v>
    <v>       0.51703670       0.35493267       0.32381790 </v>
    <v>       0.61737779       0.74933004       0.50540210 </v>
    <v>       0.38204970       0.74895034       0.49510742 </v>
    <v>       0.49930633       0.74223520       0.63805247 </v>
    <v>       0.53320835       0.53582177       0.26542306 </v>
    <v>       0.51439603       0.25255281       0.54147546 </v>
    <v>       0.46704212       0.35845769       0.72698145 </v>
    <v>       0.49809674       0.57028173       0.72811073 </v>
    <v>       0.51679795       0.58704896       0.33407202 </v>
   </varray>
  </structure>
  <varray name="forces" >
   <v>       0.20252409       0.39802368      -0.51775058 </v>
   <v>       0.23672568       2.39515263      -0.72097172 </v>
   <v>       0.17352562      -2.58974173       0.61932130 </v>
   <v>      -0.39081226       0.90849876      -1.60681345 </v>
   <v>       0.49687868      -0.32838908       1.83046246 </v>
   <v>      -0.31678014       0.96926613      -0.32477572 </v>
   <v>      -0.10414409      -2.07269385      -0.63203452 </v>
   <v>       0.20797611       0.35718246       0.53439597 </v>
   <v>      -0.74313747      -0.47761262       0.03063485 </v>
   <v>       0.91816878      -0.46184994       0.65373219 </v>
   <v>      -0.36105994      -0.02001542      -0.08558876 </v>
   <v>      -0.15388321       0.22933505       0.56385797 </v>
   <v>      -0.33322414       0.12809828      -0.49026323 </v>
   <v>       0.28760551      -0.49558072       0.53163171 </v>
   <v>      -0.17589649       0.39365762       1.29011918 </v>
   <v>       0.12412267       0.65835522      -1.71238792 </v>
  </varray>
  <varray name="stress" >
   <v>      -2.86020686       0.39752181      -1.34422803 </v>
   <v>       0.39752183      -2.70452752      -3.33876538 </v>
   <v>      -1.34422803      -3.33876540       6.09712581 </v>
  </varray>
  <energy>
   <i name="e_fr_energy">    -99.22166915 </i>
   <i name="e_wo_entrp">    -99.22746706 </i>
   <i name="e_0_energy">    -99.22360178 </i>
   <i name="kinetic">      0.64320184 </i>
   <i name="lattice kinetic">      0.00000000 </i>
   <i name="nosepot">     -0.02521878 </i>
   <i name="nosekinetic">      0.00803385 </i>
   <i name="total">    -98.59565225 </i>
  </energy>
  <time name="totalsc">    5.05    5.22</time>
 </calculation>
 <calculation>
  <scstep>
   <time name="diag">    0.09    0.09</time>
   <time name="diis">    0.29    0.30</time>
   <time name="orth">    0.00    0.00</time>
   <time name="total">    0.66    0.68</time>
   <energy>
    <i name="alphaZ">      9.74996640 </i>
    <i name="ewald">   1829.16127895 </i>
    <i name="hartreedc">  -3706.71337927 </i>
    <i name="XCdc">    181.24445754 </i>
    <i name="pawpsdc">   4098.87400478 </i>
    <i name="pawaedc">  -4111.10770004 </i>
    <i name="eentropy">      0.00579791 </i>
    <i name="bandstr">   -609.81659055 </i>
    <i name="atom">   2209.41246822 </i>
    <i name="e_fr_energy">    -99.18969607 </i>
    <i name="e_wo_entrp">    -99.19549397 </i>
    <i name="e_0_energy">    -99.19162870 </i>
   </energy>
  </scstep>
  <scstep>
   <time name="diag">    0.09    0.10</time>
   <time name="diis">    0.31    0.31</time>
   <time name="orth">    0.00    0.00</time>
   <time name="total">    0.68    0.69</time>
   <energy>
    <i name="e_fr_energy">    -99.18997168 </i>
    <i name="e_wo_entrp">    -99.19576958 </i>
    <i name="e_0_energy">    -99.19190431 </i>
   </energy>
  </scstep>
  <scstep>
   <time name="diag">    0.09    0.09</time>
   <time name="diis">    0.29    0.30</time>
   <time name="orth">    0.00    0.00</time>
   <time name="total">    0.66    0.67</time>
   <energy>
    <i name="e_fr_energy">    -99.19000906 </i>
    <i name="e_wo_entrp">    -99.19580696 </i>
    <i name="e_0_energy">    -99.19194169 </i>
   </energy>
  </scstep>
  <scstep>
   <time name="diag">    0.09    0.09</time>
   <time name="diis">    0.31    0.32</time>
   <time name="orth">    0.01    0.01</time>
   <time name="total">    0.71    0.72</time>
   <energy>
    <i name="e_fr_energy">    -99.19002493 </i>
    <i name="e_wo_entrp">    -99.19582284 </i>
    <i name="e_0_energy">    -99.19195757 </i>
   </energy>
  </scstep>
  <scstep>
   <time name="diag">    0.06    0.06</time>
   <time name="diis">    0.22    0.22</time>
   <time name="orth">    0.00    0.00</time>
   <time name="total">    0.58    0.59</time>
   <energy>
    <i name="e_fr_energy">    -99.19002946 </i>
    <i name="e_wo_entrp">    -99.19582736 </i>
    <i name="e_0_energy">    -99.19196209 </i>
   </energy>
  </scstep>
  <scstep>
   <time name="diag">    0.04    0.04</time>
   <time name="diis">    0.20    0.20</time>
   <time name="orth">    0.00    0.00</time>
   <time name="total">    0.44    0.44</time>
   <energy>
    <i name="alphaZ">      9.74996640 </i>
    <i name="ewald">   1829.16127895 </i>
    <i name="hartreedc">  -3706.94901706 </i>
    <i name="XCdc">    181.25583442 </i>
    <i name="pawpsdc">   4104.62090510 </i>
    <i name="pawaedc">  -4116.85865158 </i>
    <i name="eentropy">      0.00579791 </i>
    <i name="bandstr">   -609.58861529 </i>
    <i name="atom">   2209.41246822 </i>
    <i name="e_fr_energy">    -99.19003295 </i>
    <i name="e_wo_entrp">    -99.19583085 </i>
    <i name="e_0_energy">    -99.19196558 </i>
   </energy>
  </scstep>
  <structure>
   <crystal>
    <varray name="basis" >
     <v>       7.75330000       0.00000000       0.00000000 </v>
     <v>       0.00000000      11.81980000       0.00000000 </v>
     <v>       0.00000000       0.00000000      11.23080000 </v>
    </varray>
    <i name="volume">   1029.21808743 </i>
    <varray name="rec_basis" >
     <v>       0.12897734       0.00000000       0.00000000 </v>
     <v>       0.00000000       0.08460380       0.00000000 </v>
     <v>       0.00000000       0.00000000       0.08904085 </v>
    </varray>
   </crystal>
   <varray name="positions" >
    <v>       0.49629179       0.71166433       0.54572307 </v>
    <v>       0.49760675       0.58185919       0.54423990 </v>
    <v>       0.50704490       0.52869385       0.43488821 </v>
    <v>       0.51398442       0.40757561       0.43569142 </v>
    <v>       0.49845788       0.34440589       0.53595046 </v>
    <v>       0.49260752       0.40337091       0.64533486 </v>
    <v>       0.49606927       0.52252465       0.64845232 </v>
    <v>       0.51688423       0.35463184       0.32333864 </v>
    <v>       0.61594933       0.74916896       0.50690294 </v>
    <v>       0.38389918       0.74905737       0.49688660 </v>
    <v>       0.50041100       0.74154312       0.63866089 </v>
    <v>       0.53613722       0.53788578       0.26693140 </v>
    <v>       0.51595255       0.25267856       0.54262285 </v>
    <v>       0.46177469       0.35790093       0.72793240 </v>
    <v>       0.50054502       0.57327965       0.73092061 </v>
    <v>       0.51741983       0.58730964       0.33477695 </v>
   </varray>
  </structure>
  <varray name="forces" >
   <v>       0.36286243       0.07823141      -0.07886297 </v>
   <v>       0.27675255       2.71396008      -0.78011864 </v>
   <v>       0.21321027      -2.84581460       0.70445134 </v>
   <v>      -0.48497262       0.90488718      -1.73888737 </v>
   <v>       0.59467439      -0.29416490       1.91946508 </v>
   <v>      -0.54495293       0.42734530       0.51809055 </v>
   <v>      -0.12693076      -1.21225051       0.92620187 </v>
   <v>       0.27137088       0.43969089       0.61971837 </v>
   <v>      -0.42868809      -0.36672049      -0.16127613 </v>
   <v>       0.49835319      -0.29289167       0.39907885 </v>
   <v>      -0.40464922      -0.03660058      -0.09075256 </v>
   <v>      -0.06475469      -0.25628079      -0.06544684 </v>
   <v>      -0.39492201       0.12307466      -0.55335065 </v>
   <v>       0.51830275      -0.07320147      -0.19581055 </v>
   <v>      -0.23722004      -0.56660007      -0.13765807 </v>
   <v>       0.05463054       1.27274625      -1.29942133 </v>
  </varray>
  <varray name="stress" >
   <v>      -1.90506497       0.03143390      -1.32728695 </v>
   <v>       0.03143391      -3.07292923      -4.33343813 </v>
   <v>      -1.32728694      -4.33343812       5.13347718 </v>
  </varray>
  <energy>
   <i name="e_fr_energy">    -99.19003295 </i>
   <i name="e_wo_entrp">    -99.19583085 </i>
   <i name="e_0_energy">    -99.19196558 </i>
   <i name="kinetic">      0.62470172 </i>
   <i name="lattice kinetic">      0.00000000 </i>
   <i name="nosepot">     -0.04861147 </i>
   <i name="nosekinetic">      0.01544265 </i>
   <i name="total">    -98.59850005 </i>
  </energy>
  <time name="totalsc">    4.96    5.16</time>
 </calculation>
 <calculation>
  <scstep>
   <time name="diag">    0.09    0.09</time>
   <time name="diis">    0.31    0.31</time>
   <time name="orth">    0.00    0.00</time>
   <time name="total">    0.67    0.68</time>
   <energy>
    <i name="alphaZ">      9.74996640 </i>
    <i name="ewald">   1829.41824786 </i>
    <i name="hartreedc">  -3706.55038170 </i>
    <i name="XCdc">    181.26562190 </i>
    <i name="pawpsdc">   4102.90657376 </i>
    <i name="pawaedc">  -4115.15074448 </i>
    <i name="eentropy">      0.00579791 </i>
    <i name="bandstr">   -610.12467147 </i>
    <i name="atom">   2209.41246822 </i>
    <i name="e_fr_energy">    -99.06712160 </i>
    <i name="e_wo_entrp">    -99.07291950 </i>
    <i name="e_0_energy">    -99.06905423 </i>
   </energy>
  </scstep>
  <scstep>
   <time name="diag">    0.09    0.09</time>
   <time name="diis">    0.31    0.32</time>
   <time name="orth">    0.01    0.01</time>
   <time name="total">    0.67    0.68</time>
   <energy>
    <i name="e_fr_energy">    -99.06743364 </i>
    <i name="e_wo_entrp">    -99.07323155 </i>
    <i name="e_0_energy">    -99.06936628 </i>
   </energy>
  </scstep>
  <scstep>
   <time name="diag">    0.08    0.09</time>
   <time name="diis">    0.31    0.32</time>
   <time name="orth">    0.00    0.00</time>
   <time name="total">    0.66    0.67</time>
   <energy>
    <i name="e_fr_energy">    -99.06746872 </i>
    <i name="e_wo_entrp">    -99.07326662 </i>
    <i name="e_0_energy">    -99.06940135 </i>
   </energy>
  </scstep>
  <scstep>
   <time name="diag">    0.09    0.09</time>
   <time name="diis">    0.33    0.34</time>
   <time name="orth">    0.00    0.00</time>
   <time name="total">    0.69    0.70</time>
   <energy>
    <i name="e_fr_energy">    -99.06747879 </i>
    <i name="e_wo_entrp">    -99.07327669 </i>
    <i name="e_0_energy">    -99.06941142 </i>
   </energy>
  </scstep>
  <scstep>
   <time name="diag">    0.08    0.08</time>
   <time name="diis">    0.22    0.23</time>
   <time name="orth">    0.00    0.00</time>
   <time name="total">    0.61    0.62</time>
   <energy>
    <i name="e_fr_energy">    -99.06748195 </i>
    <i name="e_wo_entrp">    -99.07327986 </i>
    <i name="e_0_energy">    -99.06941459 </i>
   </energy>
  </scstep>
  <scstep>
   <time name="diag">    0.04    0.04</time>
   <time name="diis">    0.19    0.19</time>
   <time name="orth">    0.00    0.00</time>
   <time name="total">    0.46    0.46</time>
   <energy>
    <i name="alphaZ">      9.74996640 </i>
    <i name="ewald">   1829.41824786 </i>
    <i name="hartreedc">  -3706.74867862 </i>
    <i name="XCdc">    181.27465825 </i>
    <i name="pawpsdc">   4107.77197484 </i>
    <i name="pawaedc">  -4120.01801897 </i>
    <i name="eentropy">      0.00579791 </i>
    <i name="bandstr">   -609.93390047 </i>
    <i name="atom">   2209.41246822 </i>
    <i name="e_fr_energy">    -99.06748459 </i>
    <i name="e_wo_entrp">    -99.07328250 </i>
    <i name="e_0_energy">    -99.06941723 </i>
   </energy>
  </scstep>
  <structure>
   <crystal>
    <varray name="basis" >
     <v>       7.75330000       0.00000000       0.00000000 </v>
     <v>       0.00000000      11.81980000       0.00000000 </v>
     <v>       0.00000000       0.00000000      11.23080000 </v>
    </varray>
    <i name="volume">   1029.21808743 </i>
    <varray name="rec_basis" >
     <v>       0.12897734       0.00000000       0.00000000 </v>
     <v>       0.00000000       0.08460380       0.00000000 </v>
     <v>       0.00000000       0.00000000       0.08904085 </v>
    </varray>
   </crystal>
   <varray name="positions" >
    <v>       0.49606899       0.71163799       0.54602561 </v>
    <v>       0.49726366       0.58165653       0.54419030 </v>
    <v>       0.50689476       0.52864599       0.43496140 </v>
    <v>       0.51479323       0.40756809       0.43539906 </v>
    <v>       0.49761623       0.34427758       0.53568986 </v>
    <v>       0.49197594       0.40366738       0.64484284 </v>
    <v>       0.49660783       0.52242697       0.64822414 </v>
    <v>       0.51674648       0.35434568       0.32288094 </v>
    <v>       0.61396242       0.74870404       0.50828553 </v>
    <v>       0.38639830       0.74892503       0.49903628 </v>
    <v>       0.50102313       0.74081109       0.63919948 </v>
    <v>       0.53902526       0.53976814       0.26840451 </v>
    <v>       0.51703510       0.25290717       0.54330780 </v>
    <v>       0.45708144       0.35727604       0.72872746 </v>
    <v>       0.50272954       0.57585401       0.73365117 </v>
    <v>       0.51805374       0.58763928       0.33542168 </v>
   </varray>
  </structure>
  <varray name="forces" >
   <v>       0.56259835      -0.40453400       0.51133328 </v>
   <v>       0.30453777       2.85621331      -0.73989479 </v>
   <v>       0.25171853      -2.90506252       0.71180358 </v>
   <v>      -0.57866665       0.76186908      -1.71636759 </v>
   <v>       0.68942897      -0.13893123       1.86088754 </v>
   <v>      -0.75084875      -0.10543196       1.19298396 </v>
   <v>      -0.12011116      -0.48333709       1.95704673 </v>
   <v>       0.31555596       0.48981835       0.68739160 </v>
   <v>       0.03473865      -0.17714098      -0.39395259 </v>
[...]
    <i name="e_0_energy">    -98.85700492 </i>
   </energy>
  </scstep>
  <scstep>
   <time name="diag">    0.06    0.06</time>
   <time name="diis">    0.26    0.27</time>
   <time name="orth">    0.01    0.01</time>
   <time name="total">    0.56    0.57</time>
   <energy>
    <i name="e_fr_energy">    -98.85535612 </i>
    <i name="e_wo_entrp">    -98.86115403 </i>
    <i name="e_0_energy">    -98.85728876 </i>
   </energy>
  </scstep>
  <scstep>
   <time name="diag">    0.08    0.08</time>
   <time name="diis">    0.34    0.35</time>
   <time name="orth">    0.00    0.00</time>
   <time name="total">    0.64    0.67</time>
   <energy>
    <i name="e_fr_energy">    -98.85545738 </i>
    <i name="e_wo_entrp">    -98.86125529 </i>
    <i name="e_0_energy">    -98.85739002 </i>
   </energy>
  </scstep>
  <scstep>
   <time name="diag">    0.09    0.09</time>
   <time name="diis">    0.29    0.30</time>
   <time name="orth">    0.00    0.00</time>
   <time name="total">    0.65    0.66</time>
   <energy>
    <i name="e_fr_energy">    -98.85547082 </i>
    <i name="e_wo_entrp">    -98.86126873 </i>
    <i name="e_0_energy">    -98.85740346 </i>
   </energy>
  </scstep>
  <scstep>
   <time name="diag">    0.09    0.09</time>
   <time name="diis">    0.24    0.25</time>
   <time name="orth">    0.01    0.01</time>
   <time name="total">    0.63    0.64</time>
   <energy>
    <i name="e_fr_energy">    -98.85548082 </i>
    <i name="e_wo_entrp">    -98.86127873 </i>
    <i name="e_0_energy">    -98.85741346 </i>
   </energy>
  </scstep>
  <scstep>
   <time name="diag">    0.07    0.07</time>
   <time name="diis">    0.20    0.21</time>
   <time name="orth">    0.00    0.00</time>
   <time name="total">    0.52    0.53</time>
   <energy>
    <i name="alphaZ">      9.74996640 </i>
    <i name="ewald">   1823.75743273 </i>
    <i name="hartreedc">  -3704.14547619 </i>
    <i name="XCdc">    180.35494869 </i>
    <i name="pawpsdc">   3924.78057495 </i>
    <i name="pawaedc">  -3936.93723435 </i>
    <i name="eentropy">      0.00579791 </i>
    <i name="bandstr">   -605.83396375 </i>
    <i name="atom">   2209.41246822 </i>
    <i name="e_fr_energy">    -98.85548540 </i>
    <i name="e_wo_entrp">    -98.86128331 </i>
    <i name="e_0_energy">    -98.85741804 </i>
   </energy>
  </scstep>
  <structure>
   <crystal>
    <varray name="basis" >
     <v>       7.75330000       0.00000000       0.00000000 </v>
     <v>       0.00000000      11.81980000       0.00000000 </v>
     <v>       0.00000000       0.00000000      11.23080000 </v>
    </varray>
    <i name="volume">   1029.21808743 </i>
    <varray name="rec_basis" >
     <v>       0.12897734       0.00000000       0.00000000 </v>
     <v>       0.00000000       0.08460380       0.00000000 </v>
     <v>       0.00000000       0.00000000       0.08904085 </v>
    </varray>
   </crystal>
   <varray name="positions" >
    <v>       0.56156866       0.62479694       0.68074703 </v>
    <v>       0.50926946       0.53525706       0.58597868 </v>
    <v>       0.58308425       0.53305170       0.47133499 </v>
    <v>       0.49804548       0.44783186       0.39101968 </v>
    <v>       0.36239492       0.38140799       0.42035410 </v>
    <v>       0.30531831       0.37911761       0.54526251 </v>
    <v>       0.38295628       0.45527583       0.62074080 </v>
    <v>       0.55323318       0.44234090       0.27381627 </v>
    <v>       0.69995058       0.60951990       0.71371309 </v>
    <v>       0.55831337       0.71218498       0.64499896 </v>
    <v>       0.47440788       0.61697228       0.75816690 </v>
    <v>       0.74413553       0.59724770       0.35623137 </v>
    <v>       0.30433553       0.32858462       0.35357846 </v>
    <v>       0.21888493       0.31682726       0.58899056 </v>
    <v>       0.33438695       0.47037454       0.70733796 </v>
    <v>       0.71030062       0.61014390       0.43650190 </v>
   </varray>
  </structure>
  <varray name="forces" >
   <v>       1.09994141      -0.76831518      -0.35624007 </v>
   <v>       0.80946769       1.00320546       0.45597729 </v>
   <v>      -1.38575821      -1.42483953      -1.01718280 </v>
   <v>       1.80850687       2.41980284       0.36486812 </v>
   <v>      -1.04757217      -0.83359902       2.87227756 </v>
   <v>       0.72396487      -0.28558363      -1.30140472 </v>
   <v>       0.41833847       0.89558760      -1.08758259 </v>
   <v>       0.20477288       0.33196930       0.24116285 </v>
   <v>      -1.20496382       0.21420510      -0.43852133 </v>
   <v>      -0.05432197      -0.32555081       0.09680939 </v>
   <v>       0.18993761       0.15067975      -0.22296799 </v>
   <v>       0.16844181      -0.38302627      -1.19555037 </v>
   <v>      -0.12941752      -0.37978357      -0.33745673 </v>
   <v>      -0.00355984       0.36105919      -0.97948470 </v>
   <v>      -0.40466659      -0.32007647       1.25423866 </v>
   <v>      -1.26457223      -0.72478976       1.62065233 </v>
  </varray>
  <varray name="stress" >
   <v>      -6.09567909      -3.33642308      -0.03871442 </v>
   <v>      -3.33642308      -5.73588175      -0.40048847 </v>
   <v>      -0.03871442      -0.40048848      -6.62767149 </v>
  </varray>
  <energy>
   <i name="e_fr_energy">    -98.85548540 </i>
   <i name="e_wo_entrp">    -98.86128331 </i>
   <i name="e_0_energy">    -98.85741804 </i>
   <i name="kinetic">      0.73105936 </i>
   <i name="lattice kinetic">      0.00000000 </i>
   <i name="nosepot">     -0.49276267 </i>
   <i name="nosekinetic">      0.01425894 </i>
   <i name="total">    -98.60292977 </i>
  </energy>
  <time name="totalsc">    4.88    5.09</time>
 </calculation>
 <calculation>
  <scstep>
   <time name="diag">    0.06    0.06</time>
   <time name="diis">    0.25    0.26</time>
   <time name="orth">    0.00    0.00</time>
   <time name="total">    0.54    0.55</time>
   <energy>
    <i name="alphaZ">      9.74996640 </i>
    <i name="ewald">   1821.87399640 </i>
    <i name="hartreedc">  -3702.66441442 </i>
    <i name="XCdc">    180.30877576 </i>
    <i name="pawpsdc">   3921.62664149 </i>
    <i name="pawaedc">  -3933.76988756 </i>
    <i name="eentropy">      0.00579791 </i>
    <i name="bandstr">   -605.42310928 </i>
    <i name="atom">   2209.41246822 </i>
    <i name="e_fr_energy">    -98.87976509 </i>
    <i name="e_wo_entrp">    -98.88556299 </i>
    <i name="e_0_energy">    -98.88169772 </i>
   </energy>
  </scstep>
  <scstep>
   <time name="diag">    0.09    0.09</time>
   <time name="diis">    0.28    0.28</time>
   <time name="orth">    0.00    0.00</time>
   <time name="total">    0.65    0.67</time>
   <energy>
    <i name="e_fr_energy">    -98.88014050 </i>
    <i name="e_wo_entrp">    -98.88593841 </i>
    <i name="e_0_energy">    -98.88207314 </i>
   </energy>
  </scstep>
  <scstep>
   <time name="diag">    0.08    0.08</time>
   <time name="diis">    0.30    0.30</time>
   <time name="orth">    0.01    0.01</time>
   <time name="total">    0.68    0.69</time>
   <energy>
    <i name="e_fr_energy">    -98.88024977 </i>
    <i name="e_wo_entrp">    -98.88604768 </i>
    <i name="e_0_energy">    -98.88218241 </i>
   </energy>
  </scstep>
  <scstep>
   <time name="diag">    0.06    0.06</time>
   <time name="diis">    0.35    0.36</time>
   <time name="orth">    0.01    0.01</time>
   <time name="total">    0.69    0.71</time>
   <energy>
    <i name="e_fr_energy">    -98.88026837 </i>
    <i name="e_wo_entrp">    -98.88606627 </i>
    <i name="e_0_energy">    -98.88220100 </i>
   </energy>
  </scstep>
  <scstep>
   <time name="diag">    0.08    0.08</time>
   <time name="diis">    0.26    0.27</time>
   <time name="orth">    0.01    0.01</time>
   <time name="total">    0.60    0.61</time>
   <energy>
    <i name="e_fr_energy">    -98.88027070 </i>
    <i name="e_wo_entrp">    -98.88606861 </i>
    <i name="e_0_energy">    -98.88220334 </i>
   </energy>
  </scstep>
  <scstep>
   <time name="diag">    0.09    0.09</time>
   <time name="diis">    0.21    0.21</time>
   <time name="orth">    0.00    0.00</time>
   <time name="total">    0.51    0.52</time>
   <energy>
    <i name="alphaZ">      9.74996640 </i>
    <i name="ewald">   1821.87399640 </i>
    <i name="hartreedc">  -3702.62604915 </i>
    <i name="XCdc">    180.30601352 </i>
    <i name="pawpsdc">   3921.15589114 </i>
    <i name="pawaedc">  -3933.29760052 </i>
    <i name="eentropy">      0.00579791 </i>
    <i name="bandstr">   -605.46075581 </i>
    <i name="atom">   2209.41246822 </i>
    <i name="e_fr_energy">    -98.88027190 </i>
    <i name="e_wo_entrp">    -98.88606981 </i>
    <i name="e_0_energy">    -98.88220454 </i>
   </energy>
  </scstep>
  <structure>
   <crystal>
    <varray name="basis" >
     <v>       7.75330000       0.00000000       0.00000000 </v>
     <v>       0.00000000      11.81980000       0.00000000 </v>
     <v>       0.00000000       0.00000000      11.23080000 </v>
    </varray>
    <i name="volume">   1029.21808743 </i>
    <varray name="rec_basis" >
     <v>       0.12897734       0.00000000       0.00000000 </v>
     <v>       0.00000000       0.08460380       0.00000000 </v>
     <v>       0.00000000       0.00000000       0.08904085 </v>
    </varray>
   </crystal>
   <varray name="positions" >
    <v>       0.56153844       0.62493448       0.68143507 </v>
    <v>       0.50960603       0.53478929       0.58571481 </v>
    <v>       0.58337810       0.53223946       0.47113578 </v>
    <v>       0.49792808       0.44781794       0.39098818 </v>
    <v>       0.36043722       0.38193528       0.42026997 </v>
    <v>       0.30611814       0.37940724       0.54494867 </v>
    <v>       0.38262233       0.45541156       0.62057277 </v>
    <v>       0.55424710       0.44290681       0.27342036 </v>
    <v>       0.69904769       0.60985087       0.71516977 </v>
    <v>       0.55712201       0.71117897       0.64629414 </v>
    <v>       0.47782220       0.61648608       0.75833388 </v>
    <v>       0.74245065       0.59714391       0.35525174 </v>
    <v>       0.30746445       0.32966023       0.35285170 </v>
    <v>       0.21516274       0.31596159       0.58946612 </v>
    <v>       0.33319089       0.46862585       0.70892880 </v>
    <v>       0.70998879       0.60980015       0.43704672 </v>
   </varray>
  </structure>
  <varray name="forces" >
   <v>       1.41825553      -1.22775478      -0.76963152 </v>
   <v>       0.74542606       1.10946252       0.78429726 </v>
   <v>      -1.42961399      -1.28229171      -0.90916476 </v>
   <v>       1.68457373       2.31546033       0.30828880 </v>
   <v>      -0.26842423      -0.35439389       2.87425875 </v>
   <v>      -0.23184232      -1.03023424      -0.93954114 </v>
   <v>       0.33115717       0.95909793      -0.42599769 </v>
   <v>       0.06978012       0.29103054       0.43353061 </v>
   <v>      -1.06506056       0.20517034      -0.51800696 </v>
   <v>      -0.04383831       0.09124361      -0.06572746 </v>
   <v>      -0.30264311       0.07223563       0.21781805 </v>
   <v>       0.01077460      -0.23494753      -0.54116527 </v>
   <v>      -0.48400877      -0.73465370      -0.63970556 </v>
   <v>       0.61404125       0.95158428      -1.32914589 </v>
   <v>      -0.13572978      -0.33088627       0.62697307 </v>
   <v>      -0.99085016      -0.85349444       0.85406007 </v>
  </varray>
  <varray name="stress" >
   <v>      -6.02919832      -3.54226220       0.84540927 </v>
   <v>      -3.54226220      -5.37530567      -0.28165431 </v>
   <v>       0.84540925      -0.28165431      -7.97283335 </v>
  </varray>
  <energy>
   <i name="e_fr_energy">    -98.88027190 </i>
   <i name="e_wo_entrp">    -98.88606981 </i>
   <i name="e_0_energy">    -98.88220454 </i>
   <i name="kinetic">      0.73827697 </i>
   <i name="lattice kinetic">      0.00000000 </i>
   <i name="nosepot">     -0.46935485 </i>
   <i name="nosekinetic">      0.00895442 </i>
   <i name="total">    -98.60239536 </i>
  </energy>
  <time name="totalsc">    4.80    4.97</time>
 </calculation>
 <calculation>
  <scstep>
   <time name="diag">    0.06    0.06</time>
   <time name="diis">    0.31    0.31</time>
   <time name="orth">    0.01    0.01</time>
   <time name="total">    0.66    0.67</time>
   <energy>
    <i name="alphaZ">      9.74996640 </i>
    <i name="ewald">   1820.37648579 </i>
    <i name="hartreedc">  -3701.52774395 </i>
    <i name="XCdc">    180.24531056 </i>
    <i name="pawpsdc">   3916.96090632 </i>
    <i name="pawaedc">  -3929.08252491 </i>
    <i name="eentropy">      0.00579791 </i>
    <i name="bandstr">   -605.03207281 </i>
    <i name="atom">   2209.41246822 </i>
    <i name="e_fr_energy">    -98.89140647 </i>
    <i name="e_wo_entrp">    -98.89720438 </i>
    <i name="e_0_energy">    -98.89333911 </i>
   </energy>
  </scstep>
  <scstep>
   <time name="diag">    0.08    0.08</time>
   <time name="diis">    0.33    0.34</time>
   <time name="orth">    0.00    0.00</time>
   <time name="total">    0.68    0.69</time>
   <energy>
    <i name="e_fr_energy">    -98.89180178 </i>
    <i name="e_wo_entrp">    -98.89759969 </i>
    <i name="e_0_energy">    -98.89373442 </i>
   </energy>
  </scstep>
  <scstep>
   <time name="diag">    0.08    0.08</time>
   <time name="diis">    0.32    0.33</time>
   <time name="orth">    0.01    0.01</time>
   <time name="total">    0.67    0.69</time>
   <energy>
    <i name="e_fr_energy">    -98.89189785 </i>
    <i name="e_wo_entrp">    -98.89769575 </i>
    <i name="e_0_energy">    -98.89383048 </i>
   </energy>
  </scstep>
  <scstep>
   <time name="diag">    0.09    0.09</time>
   <time name="diis">    0.29    0.30</time>
   <time name="orth">    0.00    0.00</time>
   <time name="total">    0.64    0.65</time>
   <energy>
    <i name="e_fr_energy">    -98.89191027 </i>
    <i name="e_wo_entrp">    -98.89770818 </i>
    <i name="e_0_energy">    -98.89384291 </i>
   </energy>
  </scstep>
  <scstep>
   <time name="diag">    0.06    0.06</time>
   <time name="diis">    0.29    0.29</time>
   <time name="orth">    0.00    0.00</time>
   <time name="total">    0.64    0.65</time>
   <energy>
    <i name="e_fr_energy">    -98.89191565 </i>
    <i name="e_wo_entrp">    -98.89771356 </i>
    <i name="e_0_energy">    -98.89384829 </i>
   </energy>
  </scstep>
  <scstep>
   <time name="diag">    0.07    0.07</time>
   <time name="diis">    0.19    0.19</time>
   <time name="orth">    0.00    0.00</time>
   <time name="total">    0.46    0.47</time>
   <energy>
    <i name="alphaZ">      9.74996640 </i>
    <i name="ewald">   1820.37648579 </i>
    <i name="hartreedc">  -3701.59168786 </i>
    <i name="XCdc">    180.24791388 </i>
    <i name="pawpsdc">   3916.90230632 </i>
    <i name="pawaedc">  -3929.02561220 </i>
    <i name="eentropy">      0.00579791 </i>
    <i name="bandstr">   -604.96955770 </i>
    <i name="atom">   2209.41246822 </i>
    <i name="e_fr_energy">    -98.89191924 </i>
    <i name="e_wo_entrp">    -98.89771714 </i>
    <i name="e_0_energy">    -98.89385187 </i>
   </energy>
  </scstep>
  <structure>
   <crystal>
    <varray name="basis" >
     <v>       7.75330000       0.00000000       0.00000000 </v>
     <v>       0.00000000      11.81980000       0.00000000 </v>
     <v>       0.00000000       0.00000000      11.23080000 </v>
    </varray>
    <i name="volume">   1029.21808743 </i>
    <varray name="rec_basis" >
     <v>       0.12897734       0.00000000       0.00000000 </v>
     <v>       0.00000000       0.08460380       0.00000000 </v>
     <v>       0.00000000       0.00000000       0.08904085 </v>
    </varray>
   </crystal>
   <varray name="positions" >
    <v>       0.56165547       0.62498790       0.68206131 </v>
    <v>       0.51001662       0.53440183       0.58550981 </v>
    <v>       0.58352226       0.53134950       0.47087427 </v>
    <v>       0.49798631       0.44796104       0.39097920 </v>
    <v>       0.35847341       0.38243335       0.42039150 </v>
    <v>       0.30688636       0.37962448       0.54457158 </v>
    <v>       0.38232683       0.45561103       0.62037648 </v>
    <v>       0.55525557       0.44347950       0.27304843 </v>
    <v>       0.69683678       0.61034527       0.71616858 </v>
    <v>       0.55588979       0.71025807       0.64751966 </v>
    <v>       0.48082642       0.61606404       0.75868549 </v>
    <v>       0.74079777       0.59685080       0.35382032 </v>
    <v>       0.30996179       0.33012824       0.35158627 </v>
    <v>       0.21224091       0.31587811       0.58880106 </v>
    <v>       0.33184030       0.46662741       0.71103879 </v>
    <v>       0.70960439       0.60941708       0.43763163 </v>
   </varray>
  </structure>
  <varray name="forces" >
   <v>       1.40769539      -1.57155253      -1.19022026 </v>
   <v>       0.62585640       1.14518340       1.08779178 </v>
   <v>      -1.41323991      -1.07593314      -0.75082904 </v>
   <v>       1.42838997       2.10018752       0.25160025 </v>
   <v>       0.39611212      -0.08472266       2.44368101 </v>
   <v>      -0.89534945      -1.41545387      -0.74202088 </v>
   <v>       0.19699859       0.98400033       0.35614502 </v>
   <v>      -0.05257425       0.25944520       0.60464300 </v>
   <v>      -0.63237483       0.14719267      -0.49190700 </v>
   <v>      -0.04505393       0.48391814      -0.22165371 </v>
   <v>      -0.72737737      -0.01154756       0.58576898 </v>
   <v>      -0.17834609      -0.06083413       0.32177861 </v>
   <v>      -0.62626569      -0.80556701      -0.61148450 </v>
   <v>       0.95126793       1.21624585      -1.43766610 </v>
   <v>       0.18047689      -0.31719834      -0.13482506 </v>
   <v>      -0.68193786      -1.01955112      -0.13175510 </v>
  </varray>
  <varray name="stress" >
   <v>      -5.61422195      -3.72822792       1.72247171 </v>
   <v>      -3.72822793      -4.92950406      -0.71157542 </v>
   <v>       1.72247171      -0.71157544      -9.87578035 </v>
  </varray>
  <energy>
   <i name="e_fr_energy">    -98.89191924 </i>
   <i name="e_wo_entrp">    -98.89771714 </i>
   <i name="e_0_energy">    -98.89385187 </i>
   <i name="kinetic">      0.73770873 </i>
   <i name="lattice kinetic">      0.00000000 </i>
   <i name="nosepot">     -0.45137036 </i>
   <i name="nosekinetic">      0.00487489 </i>
   <i name="total">    -98.60070596 </i>
  </energy>
  <time name="totalsc">    4.92    5.08</time>
 </calculation>
 <calculation>
  <scstep>
   <time name="diag">    0.08    0.08</time>
   <time name="diis">    0.32    0.33</time>
   <time name="orth">    0.00    0.00</time>
   <time name="total">    0.65    0.66</time>
   <energy>
    <i name="alphaZ">      9.74996640 </i>
    <i name="ewald">   1820.02313740 </i>
    <i name="hartreedc">  -3701.53855174 </i>
    <i name="XCdc">    180.19978129 </i>
    <i name="pawpsdc">   3912.72245219 </i>
    <i name="pawaedc">  -3924.82670267 </i>
    <i name="eentropy">      0.00579791 </i>
    <i name="bandstr">   -604.66141237 </i>
    <i name="atom">   2209.41246822 </i>
    <i name="e_fr_energy">    -98.91306338 </i>
    <i name="e_wo_entrp">    -98.91886128 </i>
    <i name="e_0_energy">    -98.91499601 </i>
   </energy>
  </scstep>
  <scstep>
   <time name="diag">    0.08    0.08</time>
   <time name="diis">    0.31    0.32</time>
   <time name="orth">    0.00    0.00</time>
   <time name="total">    0.65    0.68</time>
   <energy>
    <i name="e_fr_energy">    -98.91338785 </i>
    <i name="e_wo_entrp">    -98.91918576 </i>
    <i name="e_0_energy">    -98.91532049 </i>
   </energy>
  </scstep>
  <scstep>
   <time name="diag">    0.09    0.09</time>
   <time name="diis">    0.28    0.29</time>
   <time name="orth">    0.00    0.00</time>
   <time name="total">    0.64    0.65</time>
   <energy>
    <i name="e_fr_energy">    -98.91347848 </i>
    <i name="e_wo_entrp">    -98.91927639 </i>
    <i name="e_0_energy">    -98.91541112 </i>
   </energy>
  </scstep>
  <scstep>
