Cluster                                 
           1
     7.753300    0.000000    0.000000
     0.000000   11.819800    0.000000
     0.000000    0.000000   11.230800
   C    F    H    O 
     7     1     7     1
Direct configuration=     1
   0.49766628  0.71212418  0.54377802
   0.49959992  0.58501825  0.54382026
   0.50800930  0.52658262  0.43511421
   0.50948169  0.40842251  0.43560562
   0.50323632  0.34477409  0.53896001
   0.49519871  0.40281373  0.64738694
   0.49332285  0.52106937  0.64882015
   0.51772901  0.35623285  0.32589303
   0.61369220  0.74638399  0.50042909
   0.38641505  0.74489715  0.49369551
   0.49142581  0.74490983  0.63510168
   0.51985112  0.53111248  0.26577645
   0.50510968  0.25273353  0.53368261
   0.48986206  0.35532152  0.73057843
   0.48652469  0.56564964  0.73394693
   0.51443606  0.58615703  0.33044093
Direct configuration=     2
   0.49738555  0.71197571  0.54425290
   0.49917609  0.58421139  0.54395559
   0.50780018  0.52720253  0.43502490
   0.51042088  0.40817895  0.43574982
   0.50223357  0.34471826  0.53820360
   0.49470606  0.40278567  0.64710493
   0.49386943  0.52163433  0.64899968
   0.51754964  0.35589894  0.32535894
   0.61578059  0.74752204  0.50146747
   0.38383420  0.74634083  0.49334710
   0.49371374  0.74423386  0.63588655
   0.52338108  0.53166467  0.26474713
   0.50770083  0.25266098  0.53591912
   0.48405042  0.35690681  0.72845959
   0.48964630  0.56551254  0.72979554
   0.51501550  0.58638741  0.33144484
Direct configuration=     3
   0.49710294  0.71184757  0.54469333
   0.49876072  0.58345181  0.54407870
   0.50759490  0.52776792  0.43494574
   0.51134825  0.40795601  0.43586058
   0.50124449  0.34466147  0.53749292
   0.49420793  0.40280677  0.64677044
   0.49442009  0.52210692  0.64907922
   0.51737222  0.35556868  0.32483161
   0.61729724  0.74847571  0.50262278
   0.38199611  0.74758004  0.49334438
   0.49586741  0.74356648  0.63664967
   0.52682988  0.53256268  0.26419095
   0.51017860  0.25258372  0.53803672
   0.47829942  0.35809233  0.72696352
   0.49264040  0.56600891  0.72695712
   0.51559849  0.58660915  0.33240268
Direct configuration=     4
   0.49682147  0.71175330  0.54508188
   0.49835836  0.58278318  0.54417609
   0.50739838  0.52823030  0.43488867
   0.51225508  0.40777318  0.43590541
   0.50027968  0.34459579  0.53686383
   0.49369989  0.40291196  0.64635088
   0.49497308  0.52241319  0.64898643
   0.51720052  0.35524581  0.32431663
   0.61787108  0.74910165  0.50394280
   0.38135501  0.74846933  0.49390519
   0.49776503  0.74290412  0.63737726
   0.53011773  0.53396485  0.26441212
   0.51244191  0.25253241  0.53992078
   0.47261198  0.35860638  0.72649475
   0.49545464  0.56763375  0.72643215
   0.51619126  0.58682438  0.33328293
Direct configuration=     5
   0.49654782  0.71169549  0.54541925
   0.49797253  0.58224211  0.54423350
   0.50721388  0.52854888  0.43486616
   0.51313596  0.40764399  0.43585630
   0.49934798  0.34451245  0.53634387
   0.49317322  0.40310731  0.64585693
   0.49552414  0.52253905  0.64874320
   0.51703670  0.35493267  0.32381790
   0.61737779  0.74933004  0.50540210
   0.38204970  0.74895034  0.49510742
   0.49930633  0.74223520  0.63805247
   0.53320835  0.53582177  0.26542306
   0.51439603  0.25255281  0.54147546
   0.46704212  0.35845769  0.72698145
   0.49809674  0.57028173  0.72811073
   0.51679795  0.58704896  0.33407202
Direct configuration=     6
   0.49629179  0.71166433  0.54572307
   0.49760675  0.58185919  0.54423990
   0.50704490  0.52869385  0.43488821
   0.51398442  0.40757561  0.43569142
   0.49845788  0.34440589  0.53595046
   0.49260752  0.40337091  0.64533486
   0.49606927  0.52252465  0.64845232
   0.51688423  0.35463184  0.32333864
   0.61594933  0.74916896  0.50690294
   0.38389918  0.74905737  0.49688660
   0.50041100  0.74154312  0.63866089
   0.53613722  0.53788578  0.26693140
   0.51595255  0.25267856  0.54262285
   0.46177469  0.35790093  0.72793240
   0.50054502  0.57327965  0.73092061
   0.51741983  0.58730964  0.33477695
Direct configuration=     7
   0.49606899  0.71163799  0.54602561
   0.49726366  0.58165653  0.54419030
   0.50689476  0.52864599  0.43496140
   0.51479323  0.40756809  0.43539906
   0.49761623  0.34427758  0.53568986
   0.49197594  0.40366738  0.64484284
   0.49660783  0.52242697  0.64822414
   0.51674648  0.35434568  0.32288094
   0.61396242  0.74870404  0.50828553
   0.38639830  0.74892503  0.49903628
   0.50102313  0.74081109  0.63919948
   0.53902526  0.53976814  0.26840451
   0.51703510  0.25290717  0.54330780
   0.45708144  0.35727604  0.72872746
   0.50272954  0.57585401  0.73365117
   0.51805374  0.58763928  0.33542168
Direct configuration=     8
   0.49589961  0.71158353  0.54637099
   0.49694472  0.58164611  0.54408654
   0.50676689  0.52839806  0.43508758
   0.51555561  0.40761282  0.43497744
   0.49682956  0.34413745  0.53555890
   0.49125268  0.40396235  0.64442785
   0.49714281  0.52229443  0.64813315
   0.51662578  0.35407549  0.32244615
   0.61198036  0.74808448  0.50935283
   0.38875910  0.74878237  0.50123081
   0.50111726  0.74002769  0.63968473
   0.54204031  0.54109522  0.26929061
   0.51758626  0.25318961  0.54350229
   0.45322513  0.35686802  0.72887059
   0.50456951  0.57744086  0.73544578
   0.51869278  0.58806694  0.33603364
Direct configuration=     9
   0.49580665  0.71146338  0.54680469
   0.49665121  0.58182726  0.54393861
   0.50666613  0.52795435  0.43526244
   0.51626384  0.40769387  0.43443422
   0.49610063  0.34400225  0.53554458
   0.49041640  0.40422970  0.64411594
   0.49767649  0.52216121  0.64821228
   0.51652502  0.35382236  0.32203430
   0.61061102  0.74748364  0.50991340
   0.39009579  0.74889940  0.50310780
   0.50070191  0.73919076  0.64015621
   0.54528122  0.54173442  0.26936426
   0.51756686  0.25343631  0.54320338
   0.45038983  0.35684473  0.72809410
   0.50600110  0.57772714  0.73585494
   0.51933527  0.58860549  0.33662538
Direct configuration=    10
   0.49580307  0.71125109  0.54735575
   0.49638361  0.58218787  0.54376336
   0.50659762  0.52732971  0.43547646
   0.51691013  0.40778864  0.43378529
   0.49543187  0.34389331  0.53562677
   0.48945541  0.40445203  0.64391104
   0.49820996  0.52205021  0.64845979
   0.51644588  0.35358722  0.32164518
   0.61028511  0.74703588  0.50984537
   0.38978798  0.74946762  0.50441578
   0.49981874  0.73831023  0.64067518
   0.54867724  0.54189290  0.26889418
   0.51694839  0.25353986  0.54242853
   0.44865195  0.35724143  0.72638016
   0.50698554  0.57661104  0.73476599
   0.51999032  0.58924541  0.33718114
Direct configuration=    11
   0.49588078  0.71094807  0.54802073
   0.49614305  0.58270192  0.54358391
   0.50656713  0.52655149  0.43571480
   0.51748497  0.40786998  0.43305245
   0.49482639  0.34383266  0.53578090
   0.48836824  0.40462466  0.64379460
   0.49874031  0.52197152  0.64884027
   0.51639034  0.35337089  0.32127769
   0.61104948  0.74677868  0.50915810
   0.38783718  0.75047254  0.50514796
   0.49854009  0.73740880  0.64131106
   0.55201555  0.54197340  0.26843767
   0.51570248  0.25341253  0.54120997
   0.44796378  0.35795036  0.72397087
   0.50751486  0.57420184  0.73239573
   0.52067564  0.58996081  0.33767118
Direct configuration=    12
   0.49601414  0.71058572  0.54876476
   0.49593251  0.58333297  0.54342559
   0.50658199  0.52566126  0.43596113
   0.51797773  0.40790744  0.43226194
   0.49428686  0.34383798  0.53597990
   0.48716819  0.40475498  0.64372533
   0.49925864  0.52191377  0.64927998
   0.51636039  0.35317402  0.32092985
   0.61253196  0.74664187  0.50800986
   0.38487150  0.75168285  0.50553058
   0.49696466  0.73651832  0.64212049
   0.55505783  0.54235608  0.26850852
   0.51379431  0.25302630  0.53959453
   0.44813503  0.35870750  0.72138339
   0.50762707  0.57088678  0.72939352
   0.52140742  0.59072320  0.33806870
Direct configuration=    13
   0.49617336  0.71021413  0.54953851
   0.49575449  0.58403442  0.54331351
   0.50664772  0.52471255  0.43619850
   0.51837721  0.40786932  0.43144342
   0.49381756  0.34391757  0.53619481
   0.48588207  0.40486212  0.64364275
   0.49974746  0.52183690  0.64965495
   0.51635852  0.35299677  0.32059977
   0.61411089  0.74649483  0.50666178
   0.38179938  0.75276820  0.50588044
   0.49521072  0.73567088  0.64312008
   0.55764599  0.54326755  0.26936963
   0.51118302  0.25243996  0.53764388
   0.44885390  0.35911831  0.71935349
   0.50742303  0.56739850  0.72695605
   0.52219755  0.59151072  0.33836658
Direct configuration=    14
   0.49633439  0.70988361  0.55029829
   0.49561330  0.58475320  0.54327191
   0.50676782  0.52376826  0.43641095
   0.51867450  0.40772549  0.43062583
   0.49342180  0.34406988  0.53639585
   0.48453855  0.40496478  0.64348751
   0.50018551  0.52168489  0.64981934
   0.51638693  0.35283986  0.32028583
   0.61515833  0.74621157  0.50539970
   0.37944262  0.75342988  0.50646982
   0.49340669  0.73488870  0.64426986
   0.55977047  0.54473101  0.27095777
   0.50782835  0.25179499  0.53543565
   0.44980754  0.35879427  0.71859422
   0.50704126  0.56465606  0.72660766
   0.52304814  0.59231084  0.33857487
Direct configuration=    15
   0.49648135  0.70963543  0.55101773
   0.49551302  0.58543591  0.54331718
   0.50694583  0.52289099  0.43658709
   0.51886114  0.40745153  0.42983490
   0.49309798  0.34428359  0.53655249
   0.48314979  0.40506185  0.64323274
   0.50055745  0.52143255  0.64968485
   0.51644707  0.35270224  0.31998584
   0.61521341  0.74571500  0.50446712
   0.37835349  0.75346740  0.50746580
   0.49168490  0.73417885  0.64547646
   0.56160835  0.54655150  0.27287407
   0.50370094  0.25127872  0.53306222
   0.45087046  0.35758731  0.71940750
   0.50655679  0.56318281  0.72924577
   0.52395355  0.59312744  0.33872664
Direct configuration=    16
   0.49660238  0.70949726  0.55168896
   0.49545752  0.58603190  0.54346040
   0.50718580  0.52214029  0.43671712
   0.51892903  0.40703362  0.42909479
   0.49284080  0.34454187  0.53663376
   0.48170919  0.40511979  0.64290298
   0.50085765  0.52112318  0.64929761
   0.51654066  0.35258159  0.31969619
   0.61406355  0.74499853  0.50402829
   0.37877089  0.75279578  0.50891962
   0.49018188  0.73353821  0.64661761
   0.56350849  0.54835362  0.27445746
   0.49880140  0.25107560  0.53063159
   0.45216698  0.35572842  0.72147457
   0.50592408  0.56267110  0.73424618
   0.52489695  0.59397416  0.33887085
Direct configuration=    17
   0.49669025  0.70948014  0.55232115
   0.49545080  0.58649513  0.54370530
   0.50749193  0.52156778  0.43679260
   0.51887101  0.40647008  0.42842965
   0.49263963  0.34482479  0.53660936
   0.48020452  0.40508541  0.64255784
   0.50108185  0.52083294  0.64879266
   0.51666922  0.35247457  0.31941302
   0.61178712  0.74413561  0.50414257
   0.38058819  0.75145624  0.51075956
   0.48903524  0.73296237  0.64757760
   0.56584736  0.54975286  0.27505517
   0.49317362  0.25131714  0.52826381
   0.45392160  0.35370606  0.72405570
   0.50506677  0.56238783  0.74000199
   0.52585921  0.59486567  0.33905521
Direct configuration=    18
   0.49674449  0.70957184  0.55293988
   0.49549753  0.58678587  0.54404910
   0.50787142  0.52121272  0.43680709
   0.51868105  0.40577758  0.42785923
   0.49247797  0.34511340  0.53645344
   0.47863201  0.40490970  0.64226084
   0.50122120  0.52061895  0.64830489
   0.51683329  0.35237766  0.31913186
   0.60877918  0.74328421  0.50474278
   0.38329744  0.74963487  0.51277987
   0.48837386  0.73245518  0.64828469
   0.56875949  0.55064920  0.27446014
   0.48690333  0.25204730  0.52607974
   0.45628295  0.35202613  0.72636079
   0.50396124  0.56174305  0.74499789
   0.52683494  0.59579831  0.33929939
Direct configuration=    19
   0.49677811  0.70973752  0.55358733
   0.49560286  0.58687647  0.54448379
   0.50833208  0.52109748  0.43675528
   0.51835572  0.40498598  0.42740003
   0.49233542  0.34539224  0.53614684
   0.47700188  0.40456360  0.64205990
   0.50126339  0.52050302  0.64792836
   0.51703358  0.35228688  0.31884835
   0.60572526  0.74267700  0.50563034
   0.38596706  0.74766382  0.51464268
   0.48830300  0.73203593  0.64873862
   0.57200166  0.55133484  0.27307827
   0.48009927  0.25320708  0.52418414
   0.45926154  0.35105682  0.72778603
   0.50263716  0.56043526  0.74821935
   0.52783794  0.59674631  0.33958511
Direct configuration=    20
   0.49681609  0.70992557  0.55431216
   0.49577195  0.58675264  0.54499538
   0.50888241  0.52122740  0.43663340
   0.51789416  0.40414046  0.42706146
   0.49218668  0.34564899  0.53568120
   0.47533593  0.40404336  0.64197869
   0.50119263  0.52047610  0.64772333
   0.51727063  0.35219840  0.31855887
   0.60345544  0.74257975  0.50652092
   0.38739857  0.74595571  0.51593951
   0.48888810  0.73174326  0.64901920
   0.57511980  0.55227370  0.27162003
   0.47287257  0.25464805  0.52265338
   0.46274653  0.35098059  0.72799119
   0.50115010  0.55838500  0.74910446
   0.52889752  0.59767364  0.33987516
Direct configuration=    21
   0.49687775  0.71008832  0.55514767
   0.49601236  0.58641314  0.54556528
   0.50953068  0.52159356  0.43643912
   0.51729960  0.40329719  0.42684553
   0.49200089  0.34587434  0.53505771
   0.47366371  0.40336732  0.64201446
   0.50099143  0.52050410  0.64772441
   0.51754469  0.35210818  0.31825972
   0.60263796  0.74320341  0.50716270
   0.38663325  0.74483057  0.51636404
   0.49014447  0.73163266  0.64927627
   0.57770431  0.55383377  0.27070503
   0.46532642  0.25617066  0.52153048
   0.46654309  0.35178206  0.72692190
   0.49956618  0.55566848  0.74745235
   0.53004306  0.59855419  0.34013841
Direct configuration=    22
   0.49695734  0.71020721  0.55608289
   0.49633235  0.58587035  0.54616944
   0.51028411  0.52217593  0.43617510
   0.51657859  0.40251934  0.42674470
   0.49174422  0.34605549  0.53429079
   0.47202382  0.40257815  0.64213168
   0.50063947  0.52053178  0.64793490
   0.51785525  0.35201211  0.31794920
   0.60342919  0.74459892  0.50748648
   0.38358273  0.74433164  0.51592320
   0.49203148  0.73176819  0.64969935
   0.57952850  0.55616676  0.27066608
   0.45757903  0.25758172  0.52082946
   0.47040694  0.35322413  0.72486080
   0.49795510  0.55251776  0.74346406
   0.53129062  0.59937716  0.34036033
Direct configuration=    23
   0.49702463  0.71029706  0.55705733
   0.49674043  0.58515080  0.54677954
   0.51114657  0.52294589  0.43584787
   0.51574401  0.40187242  0.42673986
   0.49137707  0.34617327  0.53341027
   0.47046118  0.40174345  0.64225899
   0.50011897  0.52048271  0.64830470
   0.51819969  0.35190832  0.31762848
   0.60536331  0.74661069  0.50765713
   0.37912953  0.74423063  0.51496883
   0.49445135  0.73220310  0.65045086
   0.58061242  0.55916988  0.27146510
   0.44980383  0.25875401  0.52053962
   0.47409126  0.35481815  0.72249136
   0.49637634  0.54938519  0.73799060
   0.53263606  0.60014437  0.34054912
Direct configuration=    24
   0.49704762  0.71038868  0.55799383
   0.49724279  0.58429562  0.54736312
   0.51211620  0.52386675  0.43547013
   0.51481430  0.40142049  0.42680112
   0.49085724  0.34620168  0.53245834
   0.46901755  0.40094670  0.64229705
   0.49942146  0.52025859  0.64870008
   0.51857477  0.35179535  0.31730096
   0.60760015  0.74893541  0.50797200
   0.37457726  0.74421098  0.51400813
   0.49725755  0.73295223  0.65158344
   0.58126620  0.56247796  0.27264251
   0.44225048  0.25966071  0.52062740
   0.47742291  0.35588629  0.72081935
   0.49484098  0.54701892  0.73288230
   0.53405219  0.60087152  0.34073797
Direct configuration=    25
   0.49701150  0.71051055  0.55883621
   0.49784450  0.58335291  0.54788973
   0.51318741  0.52489786  0.43505841
   0.51381262  0.40121671  0.42688876
   0.49014146  0.34610974  0.53148403
   0.46772382  0.40025995  0.64216142
   0.49854916  0.51975303  0.64891943
   0.51897379  0.35167367  0.31697227
   0.60929874  0.75123802  0.50870741
   0.37107212  0.74402311  0.51349629
   0.50027610  0.73397287  0.65298846
   0.58204699  0.56554739  0.27338864
   0.43522025  0.26036582  0.52103413
   0.48034432  0.35584478  0.72071247
   0.49327483  0.54634032  0.73073429
   0.53549511  0.60158835  0.34097950
Direct configuration=    26
   0.49691665  0.71067975  0.55956146
   0.49854984  0.58237546  0.54833011
   0.51435497  0.52599716  0.43463140
   0.51276072  0.40130048  0.42695921
   0.48918734  0.34587210  0.53053498
   0.46659915  0.39970702  0.64183791
   0.49750554  0.51890289  0.64886212
   0.51939225  0.35154597  0.31664864
   0.60985925  0.75324235  0.51002436
   0.36935301  0.74353085  0.51374266
   0.50332348  0.73516780  0.65442657
   0.58347764  0.56790877  0.27294901
   0.42900665  0.26096994  0.52167828
   0.48280661  0.35457174  0.72226358
   0.49160543  0.54782683  0.73292608
   0.53692842  0.60232238  0.34132041
Direct configuration=    27
   0.49677310  0.71089901  0.56017638
   0.49936022  0.58141825  0.54865665
   0.51561144  0.52712133  0.43420679
   0.51167919  0.40169576  0.42697237
   0.48796297  0.34547330  0.52965275
   0.46566691  0.39926024  0.64138964
   0.49628636  0.51773728  0.64866307
   0.51982609  0.35141718  0.31633629
   0.60899842  0.75476519  0.51193909
   0.36973374  0.74270381  0.51489831
   0.50620371  0.73640058  0.65561121
   0.58561128  0.56947028  0.27125251
   0.42386781  0.26154442  0.52245832
   0.48463298  0.35244555  0.72470832
   0.48991305  0.55095995  0.73800204
   0.53834499  0.60308145  0.34176295
Direct configuration=    28
   0.49660216  0.71115401  0.56070792
   0.50027017  0.58053609  0.54884828
   0.51693982  0.52822156  0.43380509
   0.51059107  0.40240606  0.42689776
   0.48645888  0.34491750  0.52886872
   0.46495202  0.39886686  0.64091125
   0.49489538  0.51634897  0.64853909
   0.52026806  0.35129295  0.31604253
   0.60678171  0.75573412  0.51431195
   0.37208066  0.74161382  0.51694397
   0.50871209  0.73752180  0.65630849
   0.58795296  0.57051925  0.26904286
   0.41998916  0.26208275  0.52325728
   0.48556076  0.35004246  0.72697881
   0.48835084  0.55470889  0.74342236
   0.53976583  0.60384951  0.34225494
Direct configuration=    29
   0.49643755  0.71141157  0.56119776
   0.50126974  0.57977332  0.54890247
   0.51831867  0.52925231  0.43344671
   0.50951753  0.40340993  0.42672156
   0.48468791  0.34423311  0.52819994
   0.46446815  0.39847170  0.64048269
   0.49335130  0.51483755  0.64863007
   0.52071108  0.35118160  0.31577582
   0.60364114  0.75621253  0.51685368
   0.37573531  0.74044015  0.51966573
   0.51066757  0.73839923  0.65641756
   0.58986701  0.57142603  0.26729971
   0.41743090  0.26248146  0.52395308
   0.48537439  0.34785464  0.72822042
   0.48701237  0.55817674  0.74737574
   0.54121683  0.60460564  0.34272498
Direct configuration=    30
   0.49632788  0.71161825  0.56170050
   0.50234520  0.57915588  0.54883655
   0.51972478  0.53017480  0.43315088
   0.50847290  0.40466428  0.42644740
   0.48268544  0.34347163  0.52764657
   0.46421147  0.39802585  0.64015054
   0.49168394  0.51329901  0.64898315
   0.52114765  0.35109146  0.31554310
   0.60033537  0.75640863  0.51915871
   0.37947324  0.73946901  0.52264982
   0.51194780  0.73894442  0.65600837
   0.59092949  0.57242888  0.26670645
   0.41610671  0.26255018  0.52443128
   0.48397027  0.34618616  0.72796625
   0.48591849  0.56075889  0.74897045
   0.54271515  0.60533847  0.34311938
Direct configuration=    31
   0.49633406  0.71170732  0.56227137
   0.50347762  0.57869269  0.54868295
   0.52113640  0.53096463  0.43293206
   0.50746489  0.40611004  0.42609290
   0.48049956  0.34269788  0.52719428
   0.46416288  0.39749077  0.63993051
   0.48992749  0.51182073  0.64958482
   0.52157280  0.35103096  0.31534868
   0.59777401  0.75662541  0.52078548
   0.38171010  0.73904284  0.52536468
   0.51251151  0.73912570  0.65531831
   0.59102960  0.57358530  0.26747106
   0.41582281  0.26205724  0.52459572
   0.48136011  0.34514512  0.72612762
   0.48504451  0.56208822  0.74792265
   0.54426283  0.60604744  0.34341453
Direct configuration=    32
   0.49649975  0.71162482  0.56293703
   0.50464332  0.57837836  0.54848556
   0.52253235  0.53160898  0.43279872
   0.50649790  0.40767562  0.42568344
   0.47818591  0.34197976  0.52681901
   0.46429206  0.39684163  0.63980668
   0.48812211  0.51048343  0.65038363
   0.52198206  0.35100789  0.31519614
   0.59666388  0.75712532  0.52139964
   0.38121653  0.73940317  0.52739893
   0.51240705  0.73896799  0.65471123
   0.59036715  0.57477390  0.26929998
   0.41636575  0.26081742  0.52437463
   0.47765721  0.34464362  0.72296918
   0.48434088  0.56198073  0.74434819
   0.54584018  0.60674140  0.34361933
Direct configuration=    33
   0.49680981  0.71135882  0.56366837
   0.50581282  0.57819786  0.54829040
   0.52388827  0.53210630  0.43275495
   0.50557307  0.40928241  0.42524734
   0.47579974  0.34137494  0.52649518
   0.46455920  0.39607809  0.63973214
   0.48631387  0.50934899  0.65129394
   0.52237165  0.35102919  0.31508813
   0.59712168  0.75796060  0.52093402
   0.37800641  0.74049526  0.52872107
   0.51175792  0.73853822  0.65458658
   0.58941741  0.57569958  0.27141654
   0.41759550  0.25880126  0.52372703
   0.47305926  0.34437640  0.71912321
   0.48373665  0.56046284  0.73876024
   0.54741167  0.60743671  0.34377308
Direct configuration=    34
   0.49719765  0.71094874  0.56438963
   0.50695135  0.57813059  0.54813976
   0.52518160  0.53246695  0.43279746
   0.50469108  0.41084671  0.42481445
   0.47339965  0.34092173  0.52619866
   0.46491969  0.39523121  0.63963169
   0.48455323  0.50844138  0.65218692
   0.52273578  0.35110109  0.31502645
   0.59860636  0.75892453  0.51963456
   0.37334576  0.74196716  0.52964138
   0.51072867  0.73791395  0.65522933
   0.58878081  0.57597009  0.27277950
   0.41948593  0.25620908  0.52264851
   0.46780770  0.34382632  0.71555003
   0.48314021  0.55791593  0.73225030
   0.54892746  0.60814739  0.34393461
Direct configuration=    35
   0.49759187  0.71046098  0.56502596
   0.50802327  0.57815319  0.54807000
   0.52639168  0.53270863  0.43291644
   0.50385349  0.41229109  0.42440967
   0.47103613  0.34063298  0.52590786
   0.46533168  0.39434929  0.63942773
   0.48289195  0.50772028  0.65287890
   0.52307008  0.35122823  0.31501128
   0.60026312  0.75968323  0.51793840
   0.36884399  0.74338058  0.53053154
   0.50948235  0.73714165  0.65666425
   0.58881311  0.57534875  0.27271819
   0.42208071  0.25343714  0.52117559
   0.46210265  0.34243194  0.71324230
   0.48245359  0.55527599  0.72669500
   0.55035336  0.60887677  0.34414182
Direct configuration=    36
   0.49795015  0.70995881  0.56553953
   0.50899977  0.57824268  0.54810665
   0.52750465  0.53285513  0.43309697
   0.50306045  0.41355548  0.42405225
   0.46874835  0.34049923  0.52560105
   0.46576108  0.39346412  0.63908816
   0.48136859  0.50708708  0.65316241
   0.52337248  0.35141300  0.31504114
   0.60133706  0.75994768  0.51628925
   0.36570584  0.74439219  0.53163739
   0.50815458  0.73621506  0.65862827
   0.58933885  0.57401239  0.27150751
   0.42540865  0.25094232  0.51937722
   0.45605770  0.33996570  0.71265106
   0.48160490  0.55389932  0.72440713
   0.55169275  0.60960605  0.34437771
Direct configuration=    37
   0.49825392  0.70948585  0.56593221
   0.50986160  0.57837737  0.54826291
   0.52851677  0.53293231  0.43332212
   0.50230810  0.41459980  0.42375375
   0.46656825  0.34050382  0.52525916
   0.46617369  0.39256341  0.63865031
   0.48000568  0.50648396  0.65294571
   0.52364365  0.35165604  0.31511327
   0.60138318  0.75956361  0.51501646
   0.36454248  0.74480637  0.53305229
   0.50685807  0.73509478  0.66069505
   0.58986980  0.57244232  0.27006041
   0.42942628  0.24910442  0.51733788
   0.44981718  0.33677606  0.71338321
   0.48056830  0.55446994  0.72645231
   0.55297210  0.61029979  0.34458936
Direct configuration=    38
   0.49849668  0.70906331  0.56622883
   0.51059641  0.57853938  0.54854669
   0.52942710  0.53296381  0.43357386
   0.50159312  0.41540079  0.42352235
   0.46452563  0.34062808  0.52486090
   0.46652579  0.39161066  0.63819251
   0.47881553  0.50597227  0.65235177
   0.52388449  0.35195606  0.31522361
   0.60029157  0.75852294  0.51429752
   0.36545673  0.74455798  0.53475051
   0.50569967  0.73374874  0.66244074
   0.58999115  0.57110901  0.26921863
   0.43399885  0.24815229  0.51514400
   0.44367109  0.33355733  0.71457817
   0.47933016  0.55612710  0.73142755
   0.55421975  0.61092539  0.34472964
Direct configuration=    39
   0.49868150  0.70869103  0.56646617
   0.51119683  0.57871450  0.54895822
   0.53023415  0.53296635  0.43383426
   0.50091512  0.41594884  0.42336268
   0.46265329  0.34085787  0.52438381
   0.46677332  0.39058537  0.63778938
   0.47780313  0.50564551  0.65158498
   0.52409592  0.35231055  0.31536737
   0.59826105  0.75695418  0.51415283
   0.36811972  0.74369666  0.53661362
   0.50478672  0.73218310  0.66356856
   0.58952135  0.57029667  0.26940474
   0.43890970  0.24813192  0.51287546
   0.43799933  0.33095351  0.71544727
   0.47789105  0.55751185  0.73702960
   0.55544648  0.61145959  0.34478043
Direct configuration=    40
   0.49882210  0.70834863  0.56668443
   0.51166110  0.57888696  0.54948105
   0.53093829  0.53296201  0.43409934
   0.50027510  0.41625180  0.42327045
   0.46097612  0.34118318  0.52382762
   0.46688000  0.38948414  0.63747871
   0.47696829  0.50554874  0.65079707
   0.52427925  0.35271511  0.31554149
   0.59575366  0.75509879  0.51445747
   0.37181547  0.74238025  0.53845338
   0.50422295  0.73045058  0.66396529
   0.58850731  0.57007098  0.27059241
   0.44391198  0.24891000  0.51059273
   0.43313356  0.32934919  0.71551231
   0.47627551  0.55777472  0.74160783
   0.55664902  0.61189357  0.34474923
Direct configuration=    41
   0.49894588  0.70799754  0.56692355
   0.51199434  0.57904263  0.55009413
   0.53154168  0.53296949  0.43436996
   0.49967513  0.41632936  0.42323867
   0.45950914  0.34160128  0.52319829
   0.46682449  0.38832921  0.63726801
   0.47630131  0.50567446  0.65007246
   0.52443624  0.35316520  0.31574344
   0.59341602  0.75327555  0.51496441
   0.37548868  0.74086265  0.54002898
   0.50409586  0.72864195  0.66370957
   0.58716493  0.57027788  0.27235827
   0.44877270  0.25021184  0.50832768
   0.42928489  0.32885775  0.71461487
   0.47452605  0.55662258  0.74433099
   0.55781504  0.61223103  0.34466788
Direct configuration=    42
   0.49909145  0.70759235  0.56721640
   0.51220480  0.57916970  0.55077277
   0.53204666  0.53300049  0.43464924
   0.49911917  0.41621120  0.42325872
   0.45826020  0.34211216  0.52250788
   0.46660107  0.38716451  0.63713783
   0.47578779  0.50598090  0.64945308
   0.52456792  0.35365634  0.31596910
   0.59191675  0.75180704  0.51537914
   0.37795194  0.73944222  0.54109277
   0.50446676  0.72687467  0.66303969
   0.58580876  0.57057838  0.27398819
   0.45330057  0.25168994  0.50608564
   0.42651552  0.32936430  0.71286810
   0.47268911  0.55409859  0.74491785
   0.55892670  0.61248880  0.34458712
Direct configuration=    43
   0.49929264  0.70709633  0.56757572
   0.51230500  0.57926576  0.55147351
   0.53245246  0.53304589  0.43493724
   0.49861784  0.41595690  0.42331666
   0.45723178  0.34270963  0.52177721
   0.46621898  0.38605908  0.63705758
   0.47540442  0.50638595  0.64896273
   0.52467560  0.35418234  0.31621316
   0.59169610  0.75090832  0.51546976
   0.37833257  0.73834891  0.54147625
   0.50535464  0.72527870  0.66230502
   0.58473416  0.57059023  0.27475811
   0.45734436  0.25301631  0.50386319
   0.42471252  0.33056512  0.71062307
   0.47080970  0.55044360  0.74346119
   0.55997003  0.61269253  0.34455714
Direct configuration=    44
   0.49955117  0.70650812  0.56797948
   0.51230821  0.57932748  0.55216342
   0.53275961  0.53310099  0.43523285
   0.49817849  0.41561609  0.42340025
   0.45641918  0.34337758  0.52102521
   0.46570374  0.38508459  0.63696974
   0.47513229  0.50681070  0.64859246
   0.52476146  0.35473791  0.31647076
   0.59276824  0.75060248  0.51521021
   0.37658421  0.73762247  0.54119863
   0.50674125  0.72397728  0.66187209
   0.58405599  0.57011663  0.27432122
   0.46080904  0.25398890  0.50166653
   0.42360333  0.33198456  0.70844656
   0.46891585  0.54605957  0.74039962
   0.56094106  0.61285381  0.34460663
Direct configuration=    45
   0.49983720  0.70586012  0.56838110
   0.51223052  0.57935336  0.55281125
   0.53296965  0.53315894  0.43553551
   0.49780998  0.41523934  0.42349725
   0.45581271  0.34408406  0.52026999
   0.46509262  0.38431179  0.63680607
   0.47495493  0.50716854  0.64829696
   0.52482683  0.35531795  0.31673637
   0.59472054  0.75072054  0.51478024
   0.37350714  0.73711416  0.54046875
   0.50856356  0.72306348  0.66200271
   0.58365870  0.56931650  0.27297909
   0.46362397  0.25457999  0.49953213
   0.42279897  0.33306810  0.70701515
   0.46700077  0.54151832  0.73661338
   0.56184844  0.61296325  0.34472276
Direct configuration=    46
   0.50011236  0.70520252  0.56873537
   0.51208722  0.57934369  0.55338890
   0.53308539  0.53321227  0.43584328
   0.49752180  0.41487531  0.42359411
   0.45539941  0.34478438  0.51953141
   0.46441961  0.38379195  0.63651139
   0.47486153  0.50737199  0.64798836
   0.52487406  0.35591700  0.31700395
   0.59693398  0.75099763  0.51445416
   0.37024859  0.73660913  0.53958045
   0.51071316  0.72257578  0.66273912
   0.58331925  0.56856669  0.27142943
   0.46572981  0.25491013  0.49752537
   0.42195847  0.33339088  0.70684020
   0.46498959  0.53752442  0.73346541
   0.56270721  0.61299829  0.34486886
Direct configuration=    47
   0.50034949  0.70458294  0.56902268
   0.51189445  0.57929923  0.55387312
   0.53311147  0.53325373  0.43615375
   0.49732184  0.41456925  0.42367700
   0.45516340  0.34542997  0.51882681
   0.46369762  0.38353795  0.63607266
   0.47484574  0.50734928  0.64756959
   0.52490562  0.35653108  0.31726807
   0.59883811  0.75118307  0.51447002
   0.36779167  0.73593905  0.53879882
   0.51304789  0.72248844  0.66388208
   0.58285828  0.56820270  0.27031958
   0.46707990  0.25516577  0.49572270