 vasp.6.4.1 05Apr23 (build Jun 16 2023 21:25:53) gamma-only                     
  
 executed on             LinuxIFC date 2024.07.14  18:50:55
 running    8 mpi-ranks, with    1 threads/rank, on    1 nodes
 distrk:  each k-point on    8 cores,    1 groups
 distr:  one band on NCORE=   2 cores,    4 groups


--------------------------------------------------------------------------------------------------------


 INCAR:
   SYSTEM = QM9
   ISMEAR = 0
   SIGMA = 0.1
   ENCUT = 500
   EDIFF = 1E-5
   NELM = 150
   NELMIN = 6
   NELMDL = -20
   ISIF = 2
   ALGO = V
   LREAL = Auto
   ISYM = 0
   LORBIT = 11
   IBRION = 2
   POTIM = 0.2
   EDIFFG = -0.02
   NSW = 10
   LWAVE = .FALSE.
   LCHARG = .FALSE.
   NPAR = 4

 POTCAR:    PAW_PBE C 08Apr2002                   
 POTCAR:    PAW_PBE F 08Apr2002                   
 POTCAR:    PAW_PBE H 15Jun2001                   
 POTCAR:    PAW_PBE O 08Apr2002                   
 POTCAR:    PAW_PBE C 08Apr2002                   
   SHA256 =  253f7b50bb8d59471dbedb8285d89021f4a42ed1a2c5d38a03a736e69125dd95 C/POTCAR              
   COPYR  = (c) Copyright 08Apr2002 Georg Kresse                                                    
   COPYR  = This file is part of the software VASP. Any use, copying, and all other rights are regul
   COPYR  = If you do not have a valid VASP license, you may not use, copy or distribute this file. 
   VRHFIN =C: s2p2                                                                                  
   LEXCH  = PE                                                                                      
   EATOM  =   147.1560 eV,   10.8157 Ry                                                             
                                                                                                    
   TITEL  = PAW_PBE C 08Apr2002                                                                     
   LULTRA =        F    use ultrasoft PP ?                                                          
   IUNSCR =        1    unscreen: 0-lin 1-nonlin 2-no                                               
   RPACOR =    1.200    partial core radius                                                         
   POMASS =   12.011; ZVAL   =    4.000    mass and valenz                                          
   RCORE  =    1.500    outmost cutoff radius                                                       
   RWIGS  =    1.630; RWIGS  =    0.863    wigner-seitz radius (au A)                               
   ENMAX  =  400.000; ENMIN  =  300.000 eV                                                          
   ICORE  =        2    local potential                                                             
   LCOR   =        T    correct aug charges                                                         
   LPAW   =        T    paw PP                                                                      
   EAUG   =  644.873                                                                                
   DEXC   =    0.000                                                                                
   RMAX   =    1.529    core radius for proj-oper                                                   
   RAUG   =    1.300    factor for augmentation sphere                                              
   RDEP   =    1.501    radius for radial grids                                                     
   RDEPT  =    1.300    core radius for aug-charge                                                  
                                                                                                    
   Atomic configuration                                                                             
    4 entries                                                                                       
     n  l   j            E        occ.                                                              
     1  0  0.50      -273.3789   2.0000                                                             
     2  0  0.50       -13.7508   2.0000                                                             
     2  1  0.50        -5.2854   2.0000                                                             
     3  2  1.50        -5.4423   0.0000                                                             
   Description                                                                                      
     l       E           TYP  RCUT    TYP  RCUT                                                     
     0    -13.7508458     23  1.200                                                                 
     0     -8.2022199     23  1.200                                                                 
     1     -5.2854383     23  1.500                                                                 
     1     34.0145650     23  1.500                                                                 
     2     -5.4423304      7  1.500                                                                 
  local pseudopotential read in
  partial core-charges read in
  partial kinetic energy density read in
  atomic valenz-charges read in
  non local Contribution for L=           0  read in
    real space projection operators read in
  non local Contribution for L=           0  read in
    real space projection operators read in
  non local Contribution for L=           1  read in
    real space projection operators read in
  non local Contribution for L=           1  read in
    real space projection operators read in
    PAW grid and wavefunctions read in
 
   number of l-projection  operators is LMAX  =           4
   number of lm-projection operators is LMMAX =           8
 
 POTCAR:    PAW_PBE F 08Apr2002                   
   SHA256 =  53c630871ac675939349fc2b976745ee17808dedc90b5bdde026bc81f0faf456 F/POTCAR              
   COPYR  = (c) Copyright 08Apr2002 Georg Kresse                                                    
   COPYR  = This file is part of the software VASP. Any use, copying, and all other rights are regul
   COPYR  = If you do not have a valid VASP license, you may not use, copy or distribute this file. 
   VRHFIN =F: s2p5                                                                                  
   LEXCH  = PE                                                                                      
   EATOM  =   659.6475 eV,   48.4827 Ry                                                             
                                                                                                    
   TITEL  = PAW_PBE F 08Apr2002                                                                     
   LULTRA =        F    use ultrasoft PP ?                                                          
   IUNSCR =        1    unscreen: 0-lin 1-nonlin 2-no                                               
   RPACOR =    1.200    partial core radius                                                         
   POMASS =   18.998; ZVAL   =    7.000    mass and valenz                                          
   RCORE  =    1.520    outmost cutoff radius                                                       
   RWIGS  =    1.500; RWIGS  =    0.794    wigner-seitz radius (au A)                               
   ENMAX  =  400.000; ENMIN  =  300.000 eV                                                          
   ICORE  =        2    local potential                                                             
   LCOR   =        T    correct aug charges                                                         
   LPAW   =        T    paw PP                                                                      
   EAUG   =  613.614                                                                                
   RMAX   =    1.555    core radius for proj-oper                                                   
   RAUG   =    1.300    factor for augmentation sphere                                              
   RDEP   =    1.539    radius for radial grids                                                     
   RDEPT  =    1.299    core radius for aug-charge                                                  
                                                                                                    
   Atomic configuration                                                                             
    4 entries                                                                                       
     n  l   j            E        occ.                                                              
     1  0  0.50      -663.3661   2.0000                                                             
     2  0  0.50       -29.8995   2.0000                                                             
     2  1  0.50       -11.1114   5.0000                                                             
     3  2  1.50       -10.8847   0.0000                                                             
   Description                                                                                      
     l       E           TYP  RCUT    TYP  RCUT                                                     
     0    -29.8995018     23  1.200                                                                 
     0     -9.5240782     23  1.200                                                                 
     1    -11.1113914     23  1.520                                                                 
     1      1.3605826     23  1.520                                                                 
     2    -10.8846608      7  1.500                                                                 
  local pseudopotential read in
  partial core-charges read in
  partial kinetic energy density read in
  atomic valenz-charges read in
  non local Contribution for L=           0  read in
    real space projection operators read in
  non local Contribution for L=           0  read in
    real space projection operators read in
  non local Contribution for L=           1  read in
    real space projection operators read in
  non local Contribution for L=           1  read in
    real space projection operators read in
    PAW grid and wavefunctions read in
 
   number of l-projection  operators is LMAX  =           4
   number of lm-projection operators is LMMAX =           8
 
 POTCAR:    PAW_PBE H 15Jun2001                   
   SHA256 =  030f79b5d3ab3cf0e668861823c8fb652ff669f3e15e46930bd03bfd63a607b6 H/POTCAR              
   COPYR  = (c) Copyright 15Jun2001 Georg Kresse                                                    
   COPYR  = This file is part of the software VASP. Any use, copying, and all other rights are regul
   COPYR  = If you do not have a valid VASP license, you may not use, copy or distribute this file. 
   VRHFIN =H: ultrasoft test                                                                        
   LEXCH  = PE                                                                                      
   EATOM  =    12.4884 eV,    0.9179 Ry                                                             
                                                                                                    
   TITEL  = PAW_PBE H 15Jun2001                                                                     
   LULTRA =        F    use ultrasoft PP ?                                                          
   IUNSCR =        0    unscreen: 0-lin 1-nonlin 2-no                                               
   RPACOR =    0.000    partial core radius                                                         
   POMASS =    1.000; ZVAL   =    1.000    mass and valenz                                          
   RCORE  =    1.100    outmost cutoff radius                                                       
   RWIGS  =    0.700; RWIGS  =    0.370    wigner-seitz radius (au A)                               
   ENMAX  =  250.000; ENMIN  =  200.000 eV                                                          
   RCLOC  =    0.701    cutoff for local pot                                                        
   LCOR   =        T    correct aug charges                                                         
   LPAW   =        T    paw PP                                                                      
   EAUG   =  400.000                                                                                
   RMAX   =    1.123    core radius for proj-oper                                                   
   RAUG   =    1.200    factor for augmentation sphere                                              
   RDEP   =    1.112    radius for radial grids                                                     
   RDEPT  =    0.926    core radius for aug-charge                                                  
                                                                                                    
   Atomic configuration                                                                             
    2 entries                                                                                       
     n  l   j            E        occ.                                                              
     1  0  0.50        -6.4927   1.0000                                                             
     2  1  0.50        -3.4015   0.0000                                                             
   Description                                                                                      
     l       E           TYP  RCUT    TYP  RCUT                                                     
     0     -6.4927494     23  1.100                                                                 
     0      6.8029130     23  1.100                                                                 
     1     -4.0817478     23  1.100                                                                 
  local pseudopotential read in
  atomic valenz-charges read in
  non local Contribution for L=           0  read in
    real space projection operators read in
  non local Contribution for L=           0  read in
    real space projection operators read in
  non local Contribution for L=           1  read in
    real space projection operators read in
    PAW grid and wavefunctions read in
 
   number of l-projection  operators is LMAX  =           3
   number of lm-projection operators is LMMAX =           5
 
 POTCAR:    PAW_PBE O 08Apr2002                   
   SHA256 =  818f92134a0a090dccd8ba1447fa70422a3b330e708bb4f08108d8ae51209ddf O/POTCAR              
   COPYR  = (c) Copyright 08Apr2002 Georg Kresse                                                    
   COPYR  = This file is part of the software VASP. Any use, copying, and all other rights are regul
   COPYR  = If you do not have a valid VASP license, you may not use, copy or distribute this file. 
   VRHFIN =O: s2p4                                                                                  
   LEXCH  = PE                                                                                      
   EATOM  =   432.3788 eV,   31.7789 Ry                                                             
                                                                                                    
   TITEL  = PAW_PBE O 08Apr2002                                                                     
   LULTRA =        F    use ultrasoft PP ?                                                          
   IUNSCR =        1    unscreen: 0-lin 1-nonlin 2-no                                               
   RPACOR =    1.200    partial core radius                                                         
   POMASS =   16.000; ZVAL   =    6.000    mass and valenz                                          
   RCORE  =    1.520    outmost cutoff radius                                                       
   RWIGS  =    1.550; RWIGS  =    0.820    wigner-seitz radius (au A)                               
   ENMAX  =  400.000; ENMIN  =  300.000 eV                                                          
   ICORE  =        2    local potential                                                             
   LCOR   =        T    correct aug charges                                                         
   LPAW   =        T    paw PP                                                                      
   EAUG   =  605.392                                                                                
   DEXC   =    0.000                                                                                
   RMAX   =    1.553    core radius for proj-oper                                                   
   RAUG   =    1.300    factor for augmentation sphere                                              
   RDEP   =    1.550    radius for radial grids                                                     
   RDEPT  =    1.329    core radius for aug-charge                                                  
                                                                                                    
   Atomic configuration                                                                             
    4 entries                                                                                       
     n  l   j            E        occ.                                                              
     1  0  0.50      -514.6923   2.0000                                                             
     2  0  0.50       -23.9615   2.0000                                                             
     2  1  0.50        -9.0305   4.0000                                                             
     3  2  1.50        -9.5241   0.0000                                                             
   Description                                                                                      
     l       E           TYP  RCUT    TYP  RCUT                                                     
     0    -23.9615318     23  1.200                                                                 
     0     -9.5240782     23  1.200                                                                 
     1     -9.0304911     23  1.520                                                                 
     1      8.1634956     23  1.520                                                                 
     2     -9.5240782      7  1.500                                                                 
  local pseudopotential read in
  partial core-charges read in
  partial kinetic energy density read in
  kinetic energy density of atom read in
  atomic valenz-charges read in
  non local Contribution for L=           0  read in
    real space projection operators read in
  non local Contribution for L=           0  read in
    real space projection operators read in
  non local Contribution for L=           1  read in
    real space projection operators read in
  non local Contribution for L=           1  read in
    real space projection operators read in
    PAW grid and wavefunctions read in
 
   number of l-projection  operators is LMAX  =           4
   number of lm-projection operators is LMMAX =           8
 
 Optimization of the real space projectors (new method)

 maximal supplied QI-value         = 25.13
 optimisation between [QCUT,QGAM] = [ 11.31, 22.87] = [ 35.82,146.48] Ry 
 Optimized for a Real-space Cutoff    1.00 Angstroem

   l    n(q)    QCUT    max X(q) W(low)/X(q) W(high)/X(q)  e(spline) 
   0      7    11.310   115.676    0.43E-03    0.13E-02    0.19E-06
   0      7    11.310    87.132    0.43E-03    0.13E-02    0.18E-06
   1      6    11.310     4.429    0.42E-03    0.74E-03    0.11E-06
   1      6    11.310     2.733    0.34E-03    0.55E-03    0.92E-07
 Optimization of the real space projectors (new method)

 maximal supplied QI-value         = 24.76
 optimisation between [QCUT,QGAM] = [ 11.39, 22.77] = [ 36.31,145.25] Ry 
 Optimized for a Real-space Cutoff    1.00 Angstroem

   l    n(q)    QCUT    max X(q) W(low)/X(q) W(high)/X(q)  e(spline) 
   0      7    11.387    14.049    0.29E-03    0.95E-03    0.11E-06
   0      7    11.387     8.945    0.38E-03    0.13E-02    0.15E-06
   1      6    11.387     7.086    0.33E-03    0.10E-02    0.16E-06
   1      6    11.387     6.747    0.33E-03    0.86E-03    0.15E-06
 Optimization of the real space projectors (new method)

 maximal supplied QI-value         = 34.20
 optimisation between [QCUT,QGAM] = [ 11.29, 22.57] = [ 35.68,142.71] Ry 
 Optimized for a Real-space Cutoff    1.16 Angstroem

   l    n(q)    QCUT    max X(q) W(low)/X(q) W(high)/X(q)  e(spline) 
   0      8    11.287    19.460    0.40E-03    0.73E-03    0.16E-06
   0      8    11.287    12.209    0.38E-03    0.70E-03    0.15E-06
   1      7    11.287     4.655    0.22E-03    0.25E-04    0.22E-06
 Optimization of the real space projectors (new method)

 maximal supplied QI-value         = 24.76
 optimisation between [QCUT,QGAM] = [ 11.39, 22.77] = [ 36.31,145.25] Ry 
 Optimized for a Real-space Cutoff    1.00 Angstroem

   l    n(q)    QCUT    max X(q) W(low)/X(q) W(high)/X(q)  e(spline) 
   0      7    11.387    20.381    0.39E-03    0.13E-02    0.15E-06
   0      7    11.387    15.268    0.42E-03    0.14E-02    0.17E-06
   1      6    11.387     5.964    0.41E-03    0.11E-02    0.17E-06
   1      6    11.387     5.382    0.39E-03    0.87E-03    0.15E-06
  PAW_PBE C 08Apr2002                   :
 energy of atom  1       EATOM= -147.1560
 kinetic energy error for atom=    0.0076 (will be added to EATOM!!)
  PAW_PBE F 08Apr2002                   :
 energy of atom  2       EATOM= -659.6475
 kinetic energy error for atom=    0.0354 (will be added to EATOM!!)
  PAW_PBE H 15Jun2001                   :
 energy of atom  3       EATOM=  -12.4884
 kinetic energy error for atom=    0.0020 (will be added to EATOM!!)
  PAW_PBE O 08Apr2002                   :
 energy of atom  4       EATOM= -432.3788
 kinetic energy error for atom=    0.0224 (will be added to EATOM!!)
 
 
 POSCAR: Generated POSCAR
  positions in cartesian coordinates
  No initial velocities read in
 exchange correlation table for  LEXCH =        8
   RHO(1)=    0.500       N(1)  =     2000
   RHO(2)=  100.500       N(2)  =     4000

 VTST: version 4.1, (05/19/21)

 CHAIN: initializing optimizer
 
 OPT: Using VASP Conjugate-Gradient optimizer
 CHAIN: Read ICHAIN            0
 
 POSCAR: Generated POSCAR
  positions in cartesian coordinates
  No initial velocities read in
 


--------------------------------------------------------------------------------------------------------


 ion  position               nearest neighbor table
   1  0.498  0.712  0.544-  11 1.09   9 1.10  10 1.10   2 1.51
   2  0.500  0.584  0.544-   7 1.40   3 1.40   1 1.51
   3  0.508  0.526  0.435-  16 1.36   4 1.39   2 1.40
   4  0.510  0.408  0.435-   8 1.35   5 1.38   3 1.39
   5  0.503  0.345  0.539-  13 1.08   4 1.38   6 1.39
   6  0.495  0.403  0.647-  14 1.08   7 1.39   5 1.39
   7  0.493  0.521  0.648-  15 1.09   6 1.39   2 1.40
   8  0.518  0.357  0.328-   4 1.35
   9  0.613  0.746  0.501-   1 1.10
  10  0.387  0.745  0.494-   1 1.10
  11  0.491  0.745  0.634-   1 1.09
  12  0.520  0.531  0.267-  16 0.97
  13  0.505  0.254  0.533-   5 1.08
  14  0.490  0.356  0.730-   6 1.08
  15  0.487  0.565  0.733-   7 1.09
  16  0.514  0.585  0.331-  12 0.97   3 1.36
 

IMPORTANT INFORMATION: All symmetrisations will be switched off!
NOSYMM: (Re-)initialisation of all symmetry stuff for point group C_1.


----------------------------------------------------------------------------------------

                                     Primitive cell                                     

  volume of cell :    1029.2181

  direct lattice vectors                    reciprocal lattice vectors
     7.753300000  0.000000000  0.000000000     0.128977339  0.000000000  0.000000000
     0.000000000 11.819800000  0.000000000     0.000000000  0.084603800  0.000000000
     0.000000000  0.000000000 11.230800000     0.000000000  0.000000000  0.089040852

  length of vectors
     7.753300000 11.819800000 11.230800000     0.128977339  0.084603800  0.089040852

  position of ions in fractional coordinates (direct lattice)
     0.497620368  0.711830995  0.543674538
     0.499529233  0.584434593  0.543674538
     0.507977248  0.526227178  0.435374150
     0.509731340  0.408340243  0.435258397
     0.503411451  0.345327332  0.538759483
     0.494976333  0.402934060  0.646855077
     0.493131957  0.520761773  0.648350963
     0.518037481  0.357349532  0.327652527
     0.613067984  0.746188599  0.500623286
     0.386932016  0.744724953  0.493918510
     0.491442354  0.744741874  0.634478399
     0.519739982  0.531294946  0.267122556
     0.505126849  0.253811401  0.533443744
     0.489881728  0.355792822  0.729556220
     0.486567010  0.565085704  0.732877444
     0.514387422  0.585356774  0.331410051

  ion indices of the primitive-cell ions
   primitive index   ion index
                 1           1
                 2           2
                 3           3
                 4           4
                 5           5
                 6           6
                 7           7
                 8           8
                 9           9
                10          10
                11          11
                12          12
                13          13
                14          14
                15          15
                16          16

----------------------------------------------------------------------------------------

 
 
 KPOINTS: K-Spacing Value to Generate K-Mesh: 0.00

Automatic generation of k-mesh.
 Grid dimensions read from file:
 generate k-points for:    1    1    1

 Generating k-lattice:

  Cartesian coordinates                     Fractional coordinates (reciprocal lattice)
     0.128977339  0.000000000  0.000000000     1.000000000  0.000000000  0.000000000
     0.000000000  0.084603800  0.000000000     0.000000000  1.000000000  0.000000000
     0.000000000  0.000000000  0.089040852     0.000000000  0.000000000  1.000000000

  Length of vectors
     0.128977339  0.084603800  0.089040852

  Shift w.r.t. Gamma in fractional coordinates (k-lattice)
     0.000000000  0.000000000  0.000000000

 
 Subroutine IBZKPT returns following result:
 ===========================================
 
 Found      1 irreducible k-points:
 
 Following reciprocal coordinates:
            Coordinates               Weight
  0.000000  0.000000  0.000000      1.000000
 
 Following cartesian coordinates:
            Coordinates               Weight
  0.000000  0.000000  0.000000      1.000000
 


--------------------------------------------------------------------------------------------------------




 Dimension of arrays:
   k-points           NKPTS =      1   k-points in BZ     NKDIM =      1   number of bands    NBANDS=     36
   number of dos      NEDOS =    301   number of ions     NIONS =     16
   non local maximal  LDIM  =      4   non local SUM 2l+1 LMDIM =      8
   total plane-waves  NPLWV = 188160
   max r-space proj   IRMAX =   1257   max aug-charges    IRDMAX=   2571
   dimension x,y,z NGX =    42 NGY =   70 NGZ =   64
   dimension x,y,z NGXF=    84 NGYF=  140 NGZF=  128
   support grid    NGXF=    84 NGYF=  140 NGZF=  128
   ions per type =               7   1   7   1
   NGX,Y,Z   is equivalent  to a cutoff of   9.01,  9.85,  9.47 a.u.
   NGXF,Y,Z  is equivalent  to a cutoff of  18.01, 19.69, 18.95 a.u.

 SYSTEM =  QM9                                     
 POSCAR =  Generated POSCAR                        

 Startparameter for this run:
   NWRITE =      2    write-flag & timer
   PREC   = normal    normal or accurate (medium, high low for compatibility)
   ISTART =      0    job   : 0-new  1-cont  2-samecut
   ICHARG =      2    charge: 1-file 2-atom 10-const
   ISPIN  =      1    spin polarized calculation?
   LNONCOLLINEAR =      F non collinear calculations
   LSORBIT =      F    spin-orbit coupling
   INIWAV =      1    electr: 0-lowe 1-rand  2-diag
   LASPH  =      F    aspherical Exc in radial PAW
 Electronic Relaxation 1
   ENCUT  =  500.0 eV  36.75 Ry    6.06 a.u.  14.14 21.55 20.48*2*pi/ulx,y,z
   ENINI  =  500.0     initial cutoff
   ENAUG  =  644.9 eV  augmentation charge cutoff
   NELM   =    150;   NELMIN=  6; NELMDL=-20     # of ELM steps 
   EDIFF  = 0.1E-04   stopping-criterion for ELM
   LREAL  =      T    real-space projection
   NLSPLINE    = F    spline interpolate recip. space projectors
   LCOMPAT=      F    compatible to vasp.4.4
   GGA_COMPAT  = T    GGA compatible to vasp.4.4-vasp.4.6
   LMAXPAW     = -100 max onsite density
   LMAXMIX     =    2 max onsite mixed and CHGCAR
   VOSKOWN=      0    Vosko Wilk Nusair interpolation
   ROPT   =   -0.00050  -0.00050  -0.00050  -0.00050
 Ionic relaxation
   EDIFFG = -.2E-01   stopping-criterion for IOM
   NSW    =     10    number of steps for IOM
   NBLOCK =      1;   KBLOCK =     10    inner block; outer block 
   IBRION =      2    ionic relax: 0-MD 1-quasi-New 2-CG
   NFREE  =      1    steps in history (QN), initial steepest desc. (CG)
   ISIF   =      2    stress and relaxation
   IWAVPR =     11    prediction:  0-non 1-charg 2-wave 3-comb
   ISYM   =      0    0-nonsym 1-usesym 2-fastsym
   LCORR  =      T    Harris-Foulkes like correction to forces

   POTIM  = 0.2000    time-step for ionic-motion
   TEIN   =    0.0    initial temperature
   TEBEG  =    0.0;   TEEND  =   0.0 temperature during run
   SMASS  =  -3.00    Nose mass-parameter (am)
   estimated Nose-frequenzy (Omega)   =  0.10E-29 period in steps = 0.31E+47 mass=  -0.137E-26a.u.
   SCALEE = 1.0000    scale energy and forces
   NPACO  =    256;   APACO  = 10.0  distance and # of slots for P.C.
   PSTRESS=    0.0 pullay stress

  Mass of Ions in am
   POMASS =  12.01 19.00  1.00 16.00
  Ionic Valenz
   ZVAL   =   4.00  7.00  1.00  6.00
  Atomic Wigner-Seitz radii
   RWIGS  =  -1.00 -1.00 -1.00 -1.00
  virtual crystal weights 
   VCA    =   1.00  1.00  1.00  1.00
   NELECT =      48.0000    total number of electrons
   NUPDOWN=      -1.0000    fix difference up-down

 DOS related values:
   EMIN   =  10.00;   EMAX   =-10.00  energy-range for DOS
   EFERMI =   0.00;   METHOD = LEGACY      
   ISMEAR =     0;   SIGMA  =   0.10  broadening in eV -4-tet -1-fermi 0-gaus

 Electronic relaxation 2 (details)
   IALGO  =     48    algorithm
   LDIAG  =      T    sub-space diagonalisation (order eigenvalues)
   LSUBROT=      F    optimize rotation matrix (better conditioning)
   TURBO    =      0    0=normal 1=particle mesh
   IRESTART =      0    0=no restart 2=restart with 2 vectors
   NREBOOT  =      0    no. of reboots
   NMIN     =      0    reboot dimension
   EREF     =   0.00    reference energy to select bands
   IMIX   =      4    mixing-type and parameters
     AMIX     =   0.40;   BMIX     =  1.00
     AMIX_MAG =   1.60;   BMIX_MAG =  1.00
     AMIN     =   0.10
     WC   =   100.;   INIMIX=   1;  MIXPRE=   1;  MAXMIX= -45

 Intra band minimization:
   WEIMIN = 0.0010     energy-eigenvalue tresh-hold
   EBREAK =  0.69E-07  absolut break condition
   DEPER  =   0.30     relativ break condition  

   TIME   =   0.40     timestep for ELM

  volume/ion in A,a.u.               =      64.33       434.09
  Fermi-wavevector in a.u.,A,eV,Ry     =   0.589277  1.113572  4.724586  0.347247
  Thomas-Fermi vector in A             =   1.636868
 
 Write flags
   LWAVE        =      F    write WAVECAR
   LDOWNSAMPLE  =      F    k-point downsampling of WAVECAR
   LCHARG       =      F    write CHGCAR
   LVTOT        =      F    write LOCPOT, total local potential
   LVHAR        =      F    write LOCPOT, Hartree potential only
   LELF         =      F    write electronic localiz. function (ELF)
   LORBIT       =     11    0 simple, 1 ext, 2 COOP (PROOUT), +10 PAW based schemes


 Dipole corrections
   LMONO  =      F    monopole corrections only (constant potential shift)
   LDIPOL =      F    correct potential (dipole corrections)
   IDIPOL =      0    1-x, 2-y, 3-z, 4-all directions 
   EPSILON=  1.0000000 bulk dielectric constant

 Exchange correlation treatment:
   GGA     =    --    GGA type
   LEXCH   =     8    internal setting for exchange type
   LIBXC   =     F    Libxc                    
   VOSKOWN =     0    Vosko Wilk Nusair interpolation
   LHFCALC =     F    Hartree Fock is set to
   LHFONE  =     F    Hartree Fock one center treatment
   AEXX    =    0.0000 exact exchange contribution

 Linear response parameters
   LEPSILON=     F    determine dielectric tensor
   LRPA    =     F    only Hartree local field effects (RPA)
   LNABLA  =     F    use nabla operator in PAW spheres
   LVEL    =     F    velocity operator in full k-point grid
   CSHIFT  =0.1000    complex shift for real part using Kramers Kronig
   OMEGAMAX=  -1.0    maximum frequency
   DEG_THRESHOLD= 0.2000000E-02 threshold for treating states as degnerate
   RTIME   =   -0.100 relaxation time in fs
  (WPLASMAI=    0.000 imaginary part of plasma frequency in eV, 0.658/RTIME)
   DFIELD  = 0.0000000 0.0000000 0.0000000 field for delta impulse in time
 
  Optional k-point grid parameters
   LKPOINTS_OPT  =     F    use optional k-point grid
   KPOINTS_OPT_MODE=     1    mode for optional k-point grid
 
 Orbital magnetization related:
   ORBITALMAG=     F  switch on orbital magnetization
   LCHIMAG   =     F  perturbation theory with respect to B field
   DQ        =  0.001000  dq finite difference perturbation B field
   LLRAUG    =     F  two centre corrections for induced B field
   LBONE     =     F  B-component reconstruction in AE one-centre
   LVGVCALC  =     T  calculate vGv susceptibility
   LVGVAPPL  =     F  apply vGv susceptibility instead of pGv for G=0

 Random number generation:
   RANDOM_GENERATOR = DEFAULT
   PCG_SEED         = not used


--------------------------------------------------------------------------------------------------------


 conjugate gradient relaxation of ions
 charge density and potential will be updated during run
 non-spin polarized calculation
 RMM-DIIS sequential band-by-band
 perform sub-space diagonalisation
    before iterative eigenvector-optimisation
 modified Broyden-mixing scheme, WC =      100.0
 initial mixing is a Kerker type mixing with AMIX =  0.4000 and BMIX =      1.0000
 Hartree-type preconditioning will be used
 using additional bands           12
 real space projection scheme for non local part
 use partial core corrections
 calculate Harris-corrections to forces 
   (improved forces if not selfconsistent)
 use gradient corrections 
 use of overlap-Matrix (Vanderbilt PP)
 Gauss-broadening in eV      SIGMA  =   0.10


--------------------------------------------------------------------------------------------------------


  energy-cutoff  :      500.00
  volume of cell :     1029.22
      direct lattice vectors                 reciprocal lattice vectors
     7.753300000  0.000000000  0.000000000     0.128977339  0.000000000  0.000000000
     0.000000000 11.819800000  0.000000000     0.000000000  0.084603800  0.000000000
     0.000000000  0.000000000 11.230800000     0.000000000  0.000000000  0.089040852

  length of vectors
     7.753300000 11.819800000 11.230800000     0.128977339  0.084603800  0.089040852


 
 k-points in units of 2pi/SCALE and weight: K-Spacing Value to Generate K-Mesh: 0.00
   0.00000000  0.00000000  0.00000000       1.000
 
 k-points in reciprocal lattice and weights: K-Spacing Value to Generate K-Mesh: 0.00
   0.00000000  0.00000000  0.00000000       1.000
 
 position of ions in fractional coordinates (direct lattice) 
   0.49762037  0.71183100  0.54367454
   0.49952923  0.58443459  0.54367454
   0.50797725  0.52622718  0.43537415
   0.50973134  0.40834024  0.43525840
   0.50341145  0.34532733  0.53875948
   0.49497633  0.40293406  0.64685508
   0.49313196  0.52076177  0.64835096
   0.51803748  0.35734953  0.32765253
   0.61306798  0.74618860  0.50062329
   0.38693202  0.74472495  0.49391851
   0.49144235  0.74474187  0.63447840
   0.51973998  0.53129495  0.26712256
   0.50512685  0.25381140  0.53344374
   0.48988173  0.35579282  0.72955622
   0.48656701  0.56508570  0.73287744
   0.51438742  0.58535677  0.33141005
 
 position of ions in cartesian coordinates  (Angst):
   3.85820000  8.41370000  6.10590000
   3.87300000  6.90790000  6.10590000
   3.93850000  6.21990000  4.88960000
   3.95210000  4.82650000  4.88830000
   3.90310000  4.08170000  6.05070000
   3.83770000  4.76260000  7.26470000
   3.82340000  6.15530000  7.28150000
   4.01650000  4.22380000  3.67980000
   4.75330000  8.81980000  5.62240000
   3.00000000  8.80250000  5.54710000
   3.81030000  8.80270000  7.12570000
   4.02970000  6.27980000  3.00000000
   3.91640000  3.00000000  5.99100000
   3.79820000  4.20540000  8.19350000
   3.77250000  6.67920000  8.23080000
   3.98820000  6.91880000  3.72200000
 


--------------------------------------------------------------------------------------------------------


 use parallel FFT for orbitals z direction half grid
 k-point   1 :   0.0000 0.0000 0.0000  plane waves:   13054

 maximum and minimum number of plane-waves per node :      6530     6524

 maximum number of plane-waves:     13054
 maximum index in each direction: 
   IXMAX=   14   IYMAX=   21   IZMAX=   20
   IXMIN=  -14   IYMIN=  -21   IZMIN=    0


 real space projection operators:
  total allocation   :        741.26 KBytes
  max/ min on nodes  :        371.80        369.45


 parallel 3D FFT for wavefunctions:
    minimum data exchange during FFTs selected (reduces bandwidth)
 parallel 3D FFT for charge:
    minimum data exchange during FFTs selected (reduces bandwidth)


 total amount of memory used by VASP MPI-rank0    58243. kBytes
=======================================================================

   base      :      30000. kBytes
   nonlr-proj:        453. kBytes
   fftplans  :       8683. kBytes
   grid      :      18151. kBytes
   one-center:         12. kBytes
   wavefun   :        944. kBytes
 
     INWAV:  cpu time      0.0001: real time      0.0001
 Broyden mixing: mesh for mixing (old mesh)
   NGX = 29   NGY = 43   NGZ = 41
  (NGX  = 84   NGY  =140   NGZ  =128)
  gives a total of  51127 points

 initial charge density was supplied:
 charge density of overlapping atoms calculated
 number of electron      48.0000000 magnetization 
 keeping initial charge density in first step


--------------------------------------------------------------------------------------------------------


 Maximum index for non-local projection operator          594
 Maximum index for augmentation-charges          318 (set IRDMAX)


--------------------------------------------------------------------------------------------------------


 First call to EWALD:  gamma=   0.176
 Maximum number of real-space cells 3x 2x 3
 Maximum number of reciprocal cells 2x 3x 3

    FEWALD:  cpu time      0.0014: real time      0.0014


--------------------------------------- Ionic step        1  -------------------------------------------




--------------------------------------- Iteration      1(   1)  ---------------------------------------


    POTLOK:  cpu time      0.2109: real time      0.2385
    SETDIJ:  cpu time      0.0044: real time      0.0209
    EDDIAG:  cpu time      0.1462: real time      0.3578
  RMM-DIIS:  cpu time      0.1919: real time      0.1955
    ORTHCH:  cpu time      0.0030: real time      0.0030
       DOS:  cpu time      0.0002: real time      0.0002
    --------------------------------------------
      LOOP:  cpu time      0.5565: real time      0.8158

 eigenvalue-minimisations  :    36
 total energy-change (2. order) : 0.8011497E+03  (-0.1073516E+04)
 number of electron      48.0000000 magnetization 
 augmentation part       48.0000000 magnetization 

 Free energy of the ion-electron system (eV)
  ---------------------------------------------------
  alpha Z        PSCENC =         9.74996640
  Ewald energy   TEWEN  =      1859.77474422
  -Hartree energ DENC   =     -3541.52417622
  -exchange      EXHF   =         0.00000000
  -V(xc)+E(xc)   XCENC  =       172.63078735
  PAW double counting   =      1660.34980416    -1671.29803938
  entropy T*S    EENTRO =        -0.00000000
  eigenvalues    EBANDS =       102.05409802
  atomic energy  EATOM  =      2209.41246822
  Solvation  Ediel_sol  =         0.00000000
  ---------------------------------------------------
  free energy    TOTEN  =       801.14965276 eV

  energy without entropy =      801.14965276  energy(sigma->0) =      801.14965276


--------------------------------------------------------------------------------------------------------




--------------------------------------- Iteration      1(   2)  ---------------------------------------


    EDDIAG:  cpu time      0.0917: real time      0.0994
  RMM-DIIS:  cpu time      0.2016: real time      0.2062
    ORTHCH:  cpu time      0.0047: real time      0.0047
       DOS:  cpu time      0.0003: real time      0.0003
    --------------------------------------------
      LOOP:  cpu time      0.2982: real time      0.3107

 eigenvalue-minimisations  :    36
 total energy-change (2. order) :-0.3983732E+03  (-0.4548038E+03)
 number of electron      48.0000000 magnetization 
 augmentation part       48.0000000 magnetization 

 Free energy of the ion-electron system (eV)
  ---------------------------------------------------
  alpha Z        PSCENC =         9.74996640
  Ewald energy   TEWEN  =      1859.77474422
  -Hartree energ DENC   =     -3541.52417622
  -exchange      EXHF   =         0.00000000
  -V(xc)+E(xc)   XCENC  =       172.63078735
  PAW double counting   =      1660.34980416    -1671.29803938
  entropy T*S    EENTRO =        -0.04096696
  eigenvalues    EBANDS =      -296.27808677
  atomic energy  EATOM  =      2209.41246822
  Solvation  Ediel_sol  =         0.00000000
  ---------------------------------------------------
  free energy    TOTEN  =       402.77650102 eV

  energy without entropy =      402.81746797  energy(sigma->0) =      402.79698449


--------------------------------------------------------------------------------------------------------




--------------------------------------- Iteration      1(   3)  ---------------------------------------


    EDDIAG:  cpu time      0.0784: real time      0.0802
  RMM-DIIS:  cpu time      0.1932: real time      0.1966
    ORTHCH:  cpu time      0.0045: real time      0.0045
       DOS:  cpu time      0.0003: real time      0.0003
    --------------------------------------------
      LOOP:  cpu time      0.2763: real time      0.2816

 eigenvalue-minimisations  :    36
 total energy-change (2. order) :-0.1438082E+03  (-0.2644787E+03)
 number of electron      48.0000000 magnetization 
 augmentation part       48.0000000 magnetization 

 Free energy of the ion-electron system (eV)
  ---------------------------------------------------
  alpha Z        PSCENC =         9.74996640
  Ewald energy   TEWEN  =      1859.77474422
  -Hartree energ DENC   =     -3541.52417622
  -exchange      EXHF   =         0.00000000
  -V(xc)+E(xc)   XCENC  =       172.63078735
  PAW double counting   =      1660.34980416    -1671.29803938
  entropy T*S    EENTRO =        -0.19587110
  eigenvalues    EBANDS =      -439.93141085
  atomic energy  EATOM  =      2209.41246822
  Solvation  Ediel_sol  =         0.00000000
  ---------------------------------------------------
  free energy    TOTEN  =       258.96827279 eV

  energy without entropy =      259.16414389  energy(sigma->0) =      259.06620834


--------------------------------------------------------------------------------------------------------




--------------------------------------- Iteration      1(   4)  ---------------------------------------


    EDDIAG:  cpu time      0.0802: real time      0.0821
  RMM-DIIS:  cpu time      0.1858: real time      0.1895
    ORTHCH:  cpu time      0.0041: real time      0.0042
       DOS:  cpu time      0.0002: real time      0.0002
    --------------------------------------------
      LOOP:  cpu time      0.2703: real time      0.2759

 eigenvalue-minimisations  :    36
 total energy-change (2. order) :-0.1764753E+03  (-0.1797654E+03)
 number of electron      48.0000000 magnetization 
 augmentation part       48.0000000 magnetization 

 Free energy of the ion-electron system (eV)
  ---------------------------------------------------
  alpha Z        PSCENC =         9.74996640
  Ewald energy   TEWEN  =      1859.77474422
  -Hartree energ DENC   =     -3541.52417622
  -exchange      EXHF   =         0.00000000
  -V(xc)+E(xc)   XCENC  =       172.63078735
  PAW double counting   =      1660.34980416    -1671.29803938
  entropy T*S    EENTRO =        -0.00000566
  eigenvalues    EBANDS =      -616.60259566
  atomic energy  EATOM  =      2209.41246822
  Solvation  Ediel_sol  =         0.00000000
  ---------------------------------------------------
  free energy    TOTEN  =        82.49295342 eV

  energy without entropy =       82.49295908  energy(sigma->0) =       82.49295625


--------------------------------------------------------------------------------------------------------




--------------------------------------- Iteration      1(   5)  ---------------------------------------


    EDDIAG:  cpu time      0.0879: real time      0.0899
  RMM-DIIS:  cpu time      0.1881: real time      0.1930
    ORTHCH:  cpu time      0.0044: real time      0.0044
       DOS:  cpu time      0.0005: real time      0.0005
    --------------------------------------------
      LOOP:  cpu time      0.2809: real time      0.2877

 eigenvalue-minimisations  :    36
 total energy-change (2. order) :-0.7955628E+02  (-0.7503857E+02)
 number of electron      48.0000000 magnetization 
 augmentation part       48.0000000 magnetization 

 Free energy of the ion-electron system (eV)
  ---------------------------------------------------
  alpha Z        PSCENC =         9.74996640
  Ewald energy   TEWEN  =      1859.77474422
  -Hartree energ DENC   =     -3541.52417622
  -exchange      EXHF   =         0.00000000
  -V(xc)+E(xc)   XCENC  =       172.63078735
  PAW double counting   =      1660.34980416    -1671.29803938
  entropy T*S    EENTRO =        -0.00849608
  eigenvalues    EBANDS =      -696.15038301
  atomic energy  EATOM  =      2209.41246822
  Solvation  Ediel_sol  =         0.00000000
  ---------------------------------------------------
  free energy    TOTEN  =         2.93667565 eV

  energy without entropy =        2.94517173  energy(sigma->0) =        2.94092369


--------------------------------------------------------------------------------------------------------




--------------------------------------- Iteration      1(   6)  ---------------------------------------


    EDDIAG:  cpu time      0.0896: real time      0.0917
  RMM-DIIS:  cpu time      0.1859: real time      0.1890
    ORTHCH:  cpu time      0.0051: real time      0.0051
       DOS:  cpu time      0.0004: real time      0.0004
    --------------------------------------------
      LOOP:  cpu time      0.2810: real time      0.2863

 eigenvalue-minimisations  :    36
 total energy-change (2. order) :-0.6943154E+02  (-0.5760507E+02)
 number of electron      48.0000000 magnetization 
 augmentation part       48.0000000 magnetization 

 Free energy of the ion-electron system (eV)
  ---------------------------------------------------
  alpha Z        PSCENC =         9.74996640
  Ewald energy   TEWEN  =      1859.77474422
  -Hartree energ DENC   =     -3541.52417622
  -exchange      EXHF   =         0.00000000
  -V(xc)+E(xc)   XCENC  =       172.63078735
  PAW double counting   =      1660.34980416    -1671.29803938
  entropy T*S    EENTRO =        -0.00000000
  eigenvalues    EBANDS =      -765.59042395
  atomic energy  EATOM  =      2209.41246822
  Solvation  Ediel_sol  =         0.00000000
  ---------------------------------------------------
  free energy    TOTEN  =       -66.49486921 eV

  energy without entropy =      -66.49486921  energy(sigma->0) =      -66.49486921


--------------------------------------------------------------------------------------------------------




--------------------------------------- Iteration      1(   7)  ---------------------------------------


    EDDIAG:  cpu time      0.0896: real time      0.0919
  RMM-DIIS:  cpu time      0.1843: real time      0.1875
    ORTHCH:  cpu time      0.0050: real time      0.0050
       DOS:  cpu time      0.0002: real time      0.0002
    --------------------------------------------
      LOOP:  cpu time      0.2790: real time      0.2846

 eigenvalue-minimisations  :    36
 total energy-change (2. order) :-0.2761195E+02  (-0.2438208E+02)
 number of electron      48.0000000 magnetization 
 augmentation part       48.0000000 magnetization 

 Free energy of the ion-electron system (eV)
  ---------------------------------------------------
  alpha Z        PSCENC =         9.74996640
  Ewald energy   TEWEN  =      1859.77474422
  -Hartree energ DENC   =     -3541.52417622
  -exchange      EXHF   =         0.00000000
  -V(xc)+E(xc)   XCENC  =       172.63078735
  PAW double counting   =      1660.34980416    -1671.29803938
  entropy T*S    EENTRO =        -0.00000000
  eigenvalues    EBANDS =      -793.20237837
  atomic energy  EATOM  =      2209.41246822
  Solvation  Ediel_sol  =         0.00000000
  ---------------------------------------------------
  free energy    TOTEN  =       -94.10682363 eV

  energy without entropy =      -94.10682363  energy(sigma->0) =      -94.10682363


--------------------------------------------------------------------------------------------------------




--------------------------------------- Iteration      1(   8)  ---------------------------------------


    EDDIAG:  cpu time      0.0889: real time      0.0912
  RMM-DIIS:  cpu time      0.1882: real time      0.1918
    ORTHCH:  cpu time      0.0053: real time      0.0054
       DOS:  cpu time      0.0003: real time      0.0003
    --------------------------------------------
      LOOP:  cpu time      0.2828: real time      0.2886

 eigenvalue-minimisations  :    36
 total energy-change (2. order) :-0.1079992E+02  (-0.8566600E+01)
 number of electron      48.0000000 magnetization 
 augmentation part       48.0000000 magnetization 

 Free energy of the ion-electron system (eV)
  ---------------------------------------------------
  alpha Z        PSCENC =         9.74996640
  Ewald energy   TEWEN  =      1859.77474422
  -Hartree energ DENC   =     -3541.52417622
  -exchange      EXHF   =         0.00000000
  -V(xc)+E(xc)   XCENC  =       172.63078735
  PAW double counting   =      1660.34980416    -1671.29803938
  entropy T*S    EENTRO =        -0.00000000
  eigenvalues    EBANDS =      -804.00229820
  atomic energy  EATOM  =      2209.41246822
  Solvation  Ediel_sol  =         0.00000000
  ---------------------------------------------------
  free energy    TOTEN  =      -104.90674346 eV

  energy without entropy =     -104.90674346  energy(sigma->0) =     -104.90674346


--------------------------------------------------------------------------------------------------------




--------------------------------------- Iteration      1(   9)  ---------------------------------------


    EDDIAG:  cpu time      0.0833: real time      0.0864
  RMM-DIIS:  cpu time      0.1939: real time      0.1984
    ORTHCH:  cpu time      0.0052: real time      0.0053
       DOS:  cpu time      0.0004: real time      0.0004
    --------------------------------------------
      LOOP:  cpu time      0.2828: real time      0.2905

 eigenvalue-minimisations  :    36
 total energy-change (2. order) :-0.2936803E+01  (-0.2750934E+01)
 number of electron      48.0000000 magnetization 
 augmentation part       48.0000000 magnetization 

 Free energy of the ion-electron system (eV)
  ---------------------------------------------------
  alpha Z        PSCENC =         9.74996640
  Ewald energy   TEWEN  =      1859.77474422
  -Hartree energ DENC   =     -3541.52417622
  -exchange      EXHF   =         0.00000000
  -V(xc)+E(xc)   XCENC  =       172.63078735
  PAW double counting   =      1660.34980416    -1671.29803938
  entropy T*S    EENTRO =        -0.00000000
  eigenvalues    EBANDS =      -806.93910114
  atomic energy  EATOM  =      2209.41246822
  Solvation  Ediel_sol  =         0.00000000
  ---------------------------------------------------
  free energy    TOTEN  =      -107.84354640 eV

  energy without entropy =     -107.84354640  energy(sigma->0) =     -107.84354640


--------------------------------------------------------------------------------------------------------




--------------------------------------- Iteration      1(  10)  ---------------------------------------


    EDDIAG:  cpu time      0.0826: real time      0.0841
  RMM-DIIS:  cpu time      0.1912: real time      0.1946
    ORTHCH:  cpu time      0.0043: real time      0.0044
       DOS:  cpu time      0.0004: real time      0.0004
    --------------------------------------------
      LOOP:  cpu time      0.2786: real time      0.2835

 eigenvalue-minimisations  :    36
 total energy-change (2. order) :-0.1032825E+01  (-0.9364699E+00)
 number of electron      48.0000000 magnetization 
 augmentation part       48.0000000 magnetization 

 Free energy of the ion-electron system (eV)
  ---------------------------------------------------
  alpha Z        PSCENC =         9.74996640
  Ewald energy   TEWEN  =      1859.77474422
  -Hartree energ DENC   =     -3541.52417622
  -exchange      EXHF   =         0.00000000
  -V(xc)+E(xc)   XCENC  =       172.63078735
  PAW double counting   =      1660.34980416    -1671.29803938
  entropy T*S    EENTRO =        -0.00000000
  eigenvalues    EBANDS =      -807.97192588
  atomic energy  EATOM  =      2209.41246822
  Solvation  Ediel_sol  =         0.00000000
  ---------------------------------------------------
  free energy    TOTEN  =      -108.87637114 eV

  energy without entropy =     -108.87637114  energy(sigma->0) =     -108.87637114


--------------------------------------------------------------------------------------------------------




--------------------------------------- Iteration      1(  11)  ---------------------------------------


    EDDIAG:  cpu time      0.0801: real time      0.0821
  RMM-DIIS:  cpu time      0.1964: real time      0.2004
    ORTHCH:  cpu time      0.0047: real time      0.0048
       DOS:  cpu time      0.0004: real time      0.0004
    --------------------------------------------
      LOOP:  cpu time      0.2816: real time      0.2876

 eigenvalue-minimisations  :    36
 total energy-change (2. order) :-0.3615187E+00  (-0.3432653E+00)
 number of electron      48.0000000 magnetization 
 augmentation part       48.0000000 magnetization 

 Free energy of the ion-electron system (eV)
  ---------------------------------------------------
  alpha Z        PSCENC =         9.74996640
  Ewald energy   TEWEN  =      1859.77474422
  -Hartree energ DENC   =     -3541.52417622
  -exchange      EXHF   =         0.00000000
  -V(xc)+E(xc)   XCENC  =       172.63078735
  PAW double counting   =      1660.34980416    -1671.29803938
  entropy T*S    EENTRO =        -0.00000000
  eigenvalues    EBANDS =      -808.33344462
  atomic energy  EATOM  =      2209.41246822
  Solvation  Ediel_sol  =         0.00000000
  ---------------------------------------------------
  free energy    TOTEN  =      -109.23788987 eV

  energy without entropy =     -109.23788987  energy(sigma->0) =     -109.23788987


--------------------------------------------------------------------------------------------------------




--------------------------------------- Iteration      1(  12)  ---------------------------------------


    EDDIAG:  cpu time      0.0785: real time      0.0800
  RMM-DIIS:  cpu time      0.1938: real time      0.1977
    ORTHCH:  cpu time      0.0040: real time      0.0040
       DOS:  cpu time      0.0004: real time      0.0004
    --------------------------------------------
      LOOP:  cpu time      0.2767: real time      0.2821

 eigenvalue-minimisations  :    36
 total energy-change (2. order) :-0.1407538E+00  (-0.1318073E+00)
 number of electron      48.0000000 magnetization 
 augmentation part       48.0000000 magnetization 

 Free energy of the ion-electron system (eV)
  ---------------------------------------------------
  alpha Z        PSCENC =         9.74996640
  Ewald energy   TEWEN  =      1859.77474422
  -Hartree energ DENC   =     -3541.52417622
  -exchange      EXHF   =         0.00000000
  -V(xc)+E(xc)   XCENC  =       172.63078735
  PAW double counting   =      1660.34980416    -1671.29803938
  entropy T*S    EENTRO =        -0.00000000
  eigenvalues    EBANDS =      -808.47419841
  atomic energy  EATOM  =      2209.41246822
  Solvation  Ediel_sol  =         0.00000000
  ---------------------------------------------------
  free energy    TOTEN  =      -109.37864367 eV

  energy without entropy =     -109.37864367  energy(sigma->0) =     -109.37864367


--------------------------------------------------------------------------------------------------------




--------------------------------------- Iteration      1(  13)  ---------------------------------------


    EDDIAG:  cpu time      0.0801: real time      0.0816
  RMM-DIIS:  cpu time      0.1917: real time      0.1943
    ORTHCH:  cpu time      0.0041: real time      0.0041
       DOS:  cpu time      0.0002: real time      0.0002
    --------------------------------------------
      LOOP:  cpu time      0.2760: real time      0.2802

 eigenvalue-minimisations  :    36
 total energy-change (2. order) :-0.5426312E-01  (-0.5307644E-01)
 number of electron      48.0000000 magnetization 
 augmentation part       48.0000000 magnetization 

 Free energy of the ion-electron system (eV)
  ---------------------------------------------------
  alpha Z        PSCENC =         9.74996640
  Ewald energy   TEWEN  =      1859.77474422
  -Hartree energ DENC   =     -3541.52417622
  -exchange      EXHF   =         0.00000000
  -V(xc)+E(xc)   XCENC  =       172.63078735
  PAW double counting   =      1660.34980416    -1671.29803938
  entropy T*S    EENTRO =        -0.00000000
  eigenvalues    EBANDS =      -808.52846153
  atomic energy  EATOM  =      2209.41246822
  Solvation  Ediel_sol  =         0.00000000
  ---------------------------------------------------
  free energy    TOTEN  =      -109.43290679 eV

  energy without entropy =     -109.43290679  energy(sigma->0) =     -109.43290679


--------------------------------------------------------------------------------------------------------




--------------------------------------- Iteration      1(  14)  ---------------------------------------


    EDDIAG:  cpu time      0.0948: real time      0.0964
  RMM-DIIS:  cpu time      0.1975: real time      0.2001
    ORTHCH:  cpu time      0.0046: real time      0.0046
       DOS:  cpu time      0.0002: real time      0.0002
    --------------------------------------------
      LOOP:  cpu time      0.2971: real time      0.3014

 eigenvalue-minimisations  :    36
 total energy-change (2. order) :-0.2329564E-01  (-0.2192307E-01)
 number of electron      48.0000000 magnetization 
 augmentation part       48.0000000 magnetization 

 Free energy of the ion-electron system (eV)
  ---------------------------------------------------
  alpha Z        PSCENC =         9.74996640
  Ewald energy   TEWEN  =      1859.77474422
  -Hartree energ DENC   =     -3541.52417622
  -exchange      EXHF   =         0.00000000
  -V(xc)+E(xc)   XCENC  =       172.63078735
  PAW double counting   =      1660.34980416    -1671.29803938
  entropy T*S    EENTRO =        -0.00000000
  eigenvalues    EBANDS =      -808.55175717
  atomic energy  EATOM  =      2209.41246822
  Solvation  Ediel_sol  =         0.00000000
  ---------------------------------------------------
  free energy    TOTEN  =      -109.45620243 eV

  energy without entropy =     -109.45620243  energy(sigma->0) =     -109.45620243


--------------------------------------------------------------------------------------------------------




--------------------------------------- Iteration      1(  15)  ---------------------------------------


    EDDIAG:  cpu time      0.0823: real time      0.0839
  RMM-DIIS:  cpu time      0.3487: real time      0.3535
    ORTHCH:  cpu time      0.0032: real time      0.0033
       DOS:  cpu time      0.0001: real time      0.0001
    --------------------------------------------
      LOOP:  cpu time      0.4343: real time      0.4408

 eigenvalue-minimisations  :    78
 total energy-change (2. order) :-0.1504005E-01  (-0.1492844E-01)
 number of electron      48.0000000 magnetization 
 augmentation part       48.0000000 magnetization 

 Free energy of the ion-electron system (eV)
  ---------------------------------------------------
  alpha Z        PSCENC =         9.74996640
  Ewald energy   TEWEN  =      1859.77474422
  -Hartree energ DENC   =     -3541.52417622
  -exchange      EXHF   =         0.00000000
  -V(xc)+E(xc)   XCENC  =       172.63078735
  PAW double counting   =      1660.34980416    -1671.29803938
  entropy T*S    EENTRO =        -0.00000000
  eigenvalues    EBANDS =      -808.56679722
  atomic energy  EATOM  =      2209.41246822
  Solvation  Ediel_sol  =         0.00000000
  ---------------------------------------------------
  free energy    TOTEN  =      -109.47124248 eV

  energy without entropy =     -109.47124248  energy(sigma->0) =     -109.47124248


--------------------------------------------------------------------------------------------------------




--------------------------------------- Iteration      1(  16)  ---------------------------------------


    EDDIAG:  cpu time      0.0813: real time      0.0827
  RMM-DIIS:  cpu time      0.3570: real time      0.3615
    ORTHCH:  cpu time      0.0046: real time      0.0046
       DOS:  cpu time      0.0003: real time      0.0003
    --------------------------------------------
      LOOP:  cpu time      0.4432: real time      0.4492

 eigenvalue-minimisations  :    78
 total energy-change (2. order) :-0.2313851E-02  (-0.2293163E-02)
 number of electron      48.0000000 magnetization 
 augmentation part       48.0000000 magnetization 

 Free energy of the ion-electron system (eV)
  ---------------------------------------------------
  alpha Z        PSCENC =         9.74996640
  Ewald energy   TEWEN  =      1859.77474422
  -Hartree energ DENC   =     -3541.52417622
  -exchange      EXHF   =         0.00000000
  -V(xc)+E(xc)   XCENC  =       172.63078735
  PAW double counting   =      1660.34980416    -1671.29803938
  entropy T*S    EENTRO =        -0.00000000
  eigenvalues    EBANDS =      -808.56911107
  atomic energy  EATOM  =      2209.41246822
  Solvation  Ediel_sol  =         0.00000000
  ---------------------------------------------------
  free energy    TOTEN  =      -109.47355633 eV

  energy without entropy =     -109.47355633  energy(sigma->0) =     -109.47355633


--------------------------------------------------------------------------------------------------------




--------------------------------------- Iteration      1(  17)  ---------------------------------------


    EDDIAG:  cpu time      0.0808: real time      0.0823
  RMM-DIIS:  cpu time      0.3226: real time      0.3270
    ORTHCH:  cpu time      0.0043: real time      0.0043
       DOS:  cpu time      0.0002: real time      0.0002
    --------------------------------------------
      LOOP:  cpu time      0.4079: real time      0.4139

 eigenvalue-minimisations  :    75
 total energy-change (2. order) :-0.1526649E-03  (-0.1521108E-03)
 number of electron      48.0000000 magnetization 
 augmentation part       48.0000000 magnetization 

 Free energy of the ion-electron system (eV)
  ---------------------------------------------------
  alpha Z        PSCENC =         9.74996640
  Ewald energy   TEWEN  =      1859.77474422
  -Hartree energ DENC   =     -3541.52417622
  -exchange      EXHF   =         0.00000000
  -V(xc)+E(xc)   XCENC  =       172.63078735
  PAW double counting   =      1660.34980416    -1671.29803938
  entropy T*S    EENTRO =        -0.00000000
  eigenvalues    EBANDS =      -808.56926374
  atomic energy  EATOM  =      2209.41246822
  Solvation  Ediel_sol  =         0.00000000
  ---------------------------------------------------
  free energy    TOTEN  =      -109.47370900 eV

  energy without entropy =     -109.47370900  energy(sigma->0) =     -109.47370900


--------------------------------------------------------------------------------------------------------




--------------------------------------- Iteration      1(  18)  ---------------------------------------


    EDDIAG:  cpu time      0.0898: real time      0.0949
  RMM-DIIS:  cpu time      0.2858: real time      0.3055
    ORTHCH:  cpu time      0.0045: real time      0.0046
       DOS:  cpu time      0.0003: real time      0.0003
    --------------------------------------------
      LOOP:  cpu time      0.3805: real time      0.4053

 eigenvalue-minimisations  :    63
 total energy-change (2. order) :-0.2093541E-04  (-0.2092011E-04)
 number of electron      48.0000000 magnetization 
 augmentation part       48.0000000 magnetization 

 Free energy of the ion-electron system (eV)
  ---------------------------------------------------
  alpha Z        PSCENC =         9.74996640
  Ewald energy   TEWEN  =      1859.77474422
  -Hartree energ DENC   =     -3541.52417622
  -exchange      EXHF   =         0.00000000
  -V(xc)+E(xc)   XCENC  =       172.63078735
  PAW double counting   =      1660.34980416    -1671.29803938
  entropy T*S    EENTRO =        -0.00000000
  eigenvalues    EBANDS =      -808.56928467
  atomic energy  EATOM  =      2209.41246822
  Solvation  Ediel_sol  =         0.00000000
  ---------------------------------------------------
  free energy    TOTEN  =      -109.47372993 eV

  energy without entropy =     -109.47372993  energy(sigma->0) =     -109.47372993


--------------------------------------------------------------------------------------------------------




--------------------------------------- Iteration      1(  19)  ---------------------------------------


    EDDIAG:  cpu time      0.0847: real time      0.0866
  RMM-DIIS:  cpu time      0.1960: real time      0.1992
    ORTHCH:  cpu time      0.0044: real time      0.0044
       DOS:  cpu time      0.0003: real time      0.0003
    --------------------------------------------
      LOOP:  cpu time      0.2854: real time      0.2905

 eigenvalue-minimisations  :    51
 total energy-change (2. order) :-0.2737200E-05  (-0.2685038E-05)
 number of electron      48.0000000 magnetization 
 augmentation part       48.0000000 magnetization 

 Free energy of the ion-electron system (eV)
  ---------------------------------------------------
  alpha Z        PSCENC =         9.74996640
  Ewald energy   TEWEN  =      1859.77474422
  -Hartree energ DENC   =     -3541.52417622
  -exchange      EXHF   =         0.00000000
  -V(xc)+E(xc)   XCENC  =       172.63078735
  PAW double counting   =      1660.34980416    -1671.29803938
  entropy T*S    EENTRO =        -0.00000000
  eigenvalues    EBANDS =      -808.56928741
  atomic energy  EATOM  =      2209.41246822
  Solvation  Ediel_sol  =         0.00000000
  ---------------------------------------------------
  free energy    TOTEN  =      -109.47373267 eV

  energy without entropy =     -109.47373267  energy(sigma->0) =     -109.47373267


--------------------------------------------------------------------------------------------------------




--------------------------------------- Iteration      1(  20)  ---------------------------------------


    EDDIAG:  cpu time      0.0812: real time      0.0830
  RMM-DIIS:  cpu time      0.2180: real time      0.2220
    ORTHCH:  cpu time      0.0053: real time      0.0057
       DOS:  cpu time      0.0003: real time      0.0003
    CHARGE:  cpu time      0.0445: real time      0.0458
    MIXING:  cpu time      0.0111: real time      0.0112
    --------------------------------------------
      LOOP:  cpu time      0.3606: real time      0.3682

 eigenvalue-minimisations  :    44
 total energy-change (2. order) :-0.3326732E-06  (-0.3525907E-06)
 number of electron      48.0000025 magnetization 
 augmentation part        2.9767507 magnetization 

 Broyden mixing:
  rms(total) = 0.16600E+01    rms(broyden)= 0.16590E+01
  rms(prec ) = 0.20684E+01
  weight for this iteration     100.00

 Free energy of the ion-electron system (eV)
  ---------------------------------------------------
  alpha Z        PSCENC =         9.74996640
  Ewald energy   TEWEN  =      1859.77474422
  -Hartree energ DENC   =     -3541.52417622
  -exchange      EXHF   =         0.00000000
  -V(xc)+E(xc)   XCENC  =       172.63078735
  PAW double counting   =      1660.34980416    -1671.29803938
  entropy T*S    EENTRO =        -0.00000000
  eigenvalues    EBANDS =      -808.56928774
  atomic energy  EATOM  =      2209.41246822
  Solvation  Ediel_sol  =         0.00000000
  ---------------------------------------------------
  free energy    TOTEN  =      -109.47373300 eV

  energy without entropy =     -109.47373300  energy(sigma->0) =     -109.47373300


--------------------------------------------------------------------------------------------------------




--------------------------------------- Iteration      1(  21)  ---------------------------------------


    POTLOK:  cpu time      0.2555: real time      0.2599
    SETDIJ:  cpu time      0.0037: real time      0.0037
    EDDIAG:  cpu time      0.0703: real time      0.0713
  RMM-DIIS:  cpu time      0.5109: real time      0.5201
    ORTHCH:  cpu time      0.0051: real time      0.0052
       DOS:  cpu time      0.0003: real time      0.0003
    CHARGE:  cpu time      0.0467: real time      0.0475
    MIXING:  cpu time      0.0111: real time      0.0115
    --------------------------------------------
      LOOP:  cpu time      0.9035: real time      0.9195

 eigenvalue-minimisations  :   120
 total energy-change (2. order) : 0.7782436E+01  (-0.1374170E+01)
 number of electron      48.0000027 magnetization 
 augmentation part        2.8167670 magnetization 

 Broyden mixing:
  rms(total) = 0.89470E+00    rms(broyden)= 0.89461E+00
  rms(prec ) = 0.10552E+01
  weight for this iteration     100.00

 eigenvalues of (default mixing * dielectric matrix)
  average eigenvalue GAMMA=   1.4498
  1.4498

 Free energy of the ion-electron system (eV)
  ---------------------------------------------------
  alpha Z        PSCENC =         9.74996640
  Ewald energy   TEWEN  =      1859.77474422
  -Hartree energ DENC   =     -3624.83742345
  -exchange      EXHF   =         0.00000000
  -V(xc)+E(xc)   XCENC  =       176.75960119
  PAW double counting   =      2461.85647249    -2473.91085763
  entropy T*S    EENTRO =        -0.00000000
  eigenvalues    EBANDS =      -720.49626809
  atomic energy  EATOM  =      2209.41246822
  Solvation  Ediel_sol  =         0.00000000
  ---------------------------------------------------
  free energy    TOTEN  =      -101.69129665 eV

  energy without entropy =     -101.69129665  energy(sigma->0) =     -101.69129665


--------------------------------------------------------------------------------------------------------




--------------------------------------- Iteration      1(  22)  ---------------------------------------


    POTLOK:  cpu time      0.2351: real time      0.2396
    SETDIJ:  cpu time      0.0025: real time      0.0025
    EDDIAG:  cpu time      0.0610: real time      0.0619
  RMM-DIIS:  cpu time      0.5427: real time      0.5529
    ORTHCH:  cpu time      0.0049: real time      0.0050
       DOS:  cpu time      0.0003: real time      0.0003
    CHARGE:  cpu time      0.0439: real time      0.0447
    MIXING:  cpu time      0.0090: real time      0.0091
    --------------------------------------------
      LOOP:  cpu time      0.8994: real time      0.9160

 eigenvalue-minimisations  :   120
 total energy-change (2. order) : 0.1830198E+01  (-0.3098926E+00)
 number of electron      48.0000027 magnetization 
 augmentation part        2.7746536 magnetization 

 Broyden mixing:
  rms(total) = 0.38792E+00    rms(broyden)= 0.38788E+00
  rms(prec ) = 0.44217E+00
  weight for this iteration     100.00

 eigenvalues of (default mixing * dielectric matrix)
  average eigenvalue GAMMA=   1.6467
  1.1458  2.1476

 Free energy of the ion-electron system (eV)
  ---------------------------------------------------
  alpha Z        PSCENC =         9.74996640
  Ewald energy   TEWEN  =      1859.77474422
  -Hartree energ DENC   =     -3682.51936410
  -exchange      EXHF   =         0.00000000
  -V(xc)+E(xc)   XCENC  =       179.66343043
  PAW double counting   =      3410.46419161    -3422.88438214
  entropy T*S    EENTRO =        -0.00000000
  eigenvalues    EBANDS =      -663.52215375
  atomic energy  EATOM  =      2209.41246822
  Solvation  Ediel_sol  =         0.00000000
  ---------------------------------------------------
  free energy    TOTEN  =       -99.86109911 eV

  energy without entropy =      -99.86109911  energy(sigma->0) =      -99.86109911


--------------------------------------------------------------------------------------------------------




--------------------------------------- Iteration      1(  23)  ---------------------------------------


    POTLOK:  cpu time      0.2025: real time      0.2064
    SETDIJ:  cpu time      0.0030: real time      0.0030
    EDDIAG:  cpu time      0.0823: real time      0.0835
  RMM-DIIS:  cpu time      0.5326: real time      0.5419
    ORTHCH:  cpu time      0.0036: real time      0.0036
       DOS:  cpu time      0.0001: real time      0.0001
    CHARGE:  cpu time      0.0362: real time      0.0366
    MIXING:  cpu time      0.0092: real time      0.0094
    --------------------------------------------
      LOOP:  cpu time      0.8695: real time      0.8845

 eigenvalue-minimisations  :   120
 total energy-change (2. order) : 0.2842508E+00  (-0.3933863E-01)
 number of electron      48.0000027 magnetization 
 augmentation part        2.7515600 magnetization 

 Broyden mixing:
  rms(total) = 0.11151E+00    rms(broyden)= 0.11148E+00
  rms(prec ) = 0.14559E+00
  weight for this iteration     100.00

 eigenvalues of (default mixing * dielectric matrix)
  average eigenvalue GAMMA=   1.5878
  0.9480  2.1875  1.6279

 Free energy of the ion-electron system (eV)
  ---------------------------------------------------
  alpha Z        PSCENC =         9.74996640
  Ewald energy   TEWEN  =      1859.77474422
  -Hartree energ DENC   =     -3711.06762490
  -exchange      EXHF   =         0.00000000
  -V(xc)+E(xc)   XCENC  =       181.18417251
  PAW double counting   =      4047.06303913    -4059.49270093
  entropy T*S    EENTRO =        -0.00000000
  eigenvalues    EBANDS =      -636.20091295
  atomic energy  EATOM  =      2209.41246822
  Solvation  Ediel_sol  =         0.00000000
  ---------------------------------------------------
  free energy    TOTEN  =       -99.57684830 eV

  energy without entropy =      -99.57684830  energy(sigma->0) =      -99.57684830


--------------------------------------------------------------------------------------------------------




--------------------------------------- Iteration      1(  24)  ---------------------------------------


    POTLOK:  cpu time      0.2117: real time      0.2149
    SETDIJ:  cpu time      0.0028: real time      0.0028
    EDDIAG:  cpu time      0.0883: real time      0.0912
  RMM-DIIS:  cpu time      0.4423: real time      0.4493
    ORTHCH:  cpu time      0.0052: real time      0.0052
       DOS:  cpu time      0.0003: real time      0.0003
    CHARGE:  cpu time      0.0394: real time      0.0400
    MIXING:  cpu time      0.0089: real time      0.0090
    --------------------------------------------
      LOOP:  cpu time      0.7989: real time      0.8128

 eigenvalue-minimisations  :   107
 total energy-change (2. order) : 0.3418708E-01  (-0.2409182E-02)
 number of electron      48.0000027 magnetization 
 augmentation part        2.7543745 magnetization 

 Broyden mixing:
  rms(total) = 0.32612E-01    rms(broyden)= 0.32608E-01
  rms(prec ) = 0.69980E-01
  weight for this iteration     100.00

 eigenvalues of (default mixing * dielectric matrix)
  average eigenvalue GAMMA=   1.5777
  2.0863  2.0863  0.9436  1.1947

 Free energy of the ion-electron system (eV)
  ---------------------------------------------------
  alpha Z        PSCENC =         9.74996640
  Ewald energy   TEWEN  =      1859.77474422
  -Hartree energ DENC   =     -3717.46767955
  -exchange      EXHF   =         0.00000000
  -V(xc)+E(xc)   XCENC  =       181.41252348
  PAW double counting   =      4176.75340592    -4189.07036916
  entropy T*S    EENTRO =        -0.00000000
  eigenvalues    EBANDS =      -630.10772076
  atomic energy  EATOM  =      2209.41246822
  Solvation  Ediel_sol  =         0.00000000
  ---------------------------------------------------
  free energy    TOTEN  =       -99.54266122 eV

  energy without entropy =      -99.54266122  energy(sigma->0) =      -99.54266122


--------------------------------------------------------------------------------------------------------




--------------------------------------- Iteration      1(  25)  ---------------------------------------


    POTLOK:  cpu time      0.2442: real time      0.2496
    SETDIJ:  cpu time      0.0028: real time      0.0029
    EDDIAG:  cpu time      0.0905: real time      0.0923
  RMM-DIIS:  cpu time      0.3427: real time      0.3491
    ORTHCH:  cpu time      0.0051: real time      0.0052
       DOS:  cpu time      0.0002: real time      0.0002
    CHARGE:  cpu time      0.0372: real time      0.0379
    MIXING:  cpu time      0.0100: real time      0.0101
    --------------------------------------------
      LOOP:  cpu time      0.7328: real time      0.7473

 eigenvalue-minimisations  :    88
 total energy-change (2. order) : 0.6446332E-02  (-0.4541648E-03)
 number of electron      48.0000027 magnetization 
 augmentation part        2.7535767 magnetization 

 Broyden mixing:
  rms(total) = 0.17589E-01    rms(broyden)= 0.17588E-01
  rms(prec ) = 0.46323E-01
  weight for this iteration     100.00

 eigenvalues of (default mixing * dielectric matrix)
  average eigenvalue GAMMA=   1.7217
  2.5519  2.5519  0.9343  1.0927  1.4777

 Free energy of the ion-electron system (eV)
  ---------------------------------------------------
  alpha Z        PSCENC =         9.74996640
  Ewald energy   TEWEN  =      1859.77474422
  -Hartree energ DENC   =     -3723.31772432
  -exchange      EXHF   =         0.00000000
  -V(xc)+E(xc)   XCENC  =       181.54491821
  PAW double counting   =      4190.43322592    -4202.71873520
  entropy T*S    EENTRO =        -0.00000000
  eigenvalues    EBANDS =      -624.41507834
  atomic energy  EATOM  =      2209.41246822
  Solvation  Ediel_sol  =         0.00000000
  ---------------------------------------------------
  free energy    TOTEN  =       -99.53621489 eV

  energy without entropy =      -99.53621489  energy(sigma->0) =      -99.53621489


--------------------------------------------------------------------------------------------------------




--------------------------------------- Iteration      1(  26)  ---------------------------------------


    POTLOK:  cpu time      0.2435: real time      0.2478
    SETDIJ:  cpu time      0.0027: real time      0.0027
    EDDIAG:  cpu time      0.0773: real time      0.0785
[...]
    SETDIJ:  cpu time      0.0024: real time      0.0024
    EDDIAG:  cpu time      0.0360: real time      0.0364
  RMM-DIIS:  cpu time      0.1399: real time      0.1413
    ORTHCH:  cpu time      0.0028: real time      0.0028
       DOS:  cpu time      0.0001: real time      0.0001
    CHARGE:  cpu time      0.0194: real time      0.0196
    MIXING:  cpu time      0.0054: real time      0.0054
    --------------------------------------------
      LOOP:  cpu time      0.3323: real time      0.3365

 eigenvalue-minimisations  :    55
 total energy-change (2. order) :-0.8438174E-06  (-0.3350570E-05)
 number of electron      48.0000032 magnetization 
 augmentation part        2.7340354 magnetization 

 Broyden mixing:
  rms(total) = 0.55178E-03    rms(broyden)= 0.55137E-03
  rms(prec ) = 0.59574E-03
  weight for this iteration     100.00

 eigenvalues of (default mixing * dielectric matrix)
  average eigenvalue GAMMA=   1.6288
  0.9380  2.1092  1.8393

 Free energy of the ion-electron system (eV)
  ---------------------------------------------------
  alpha Z        PSCENC =         9.74996640
  Ewald energy   TEWEN  =      1829.77495142
  -Hartree energ DENC   =     -3707.44375542
  -exchange      EXHF   =         0.00000000
  -V(xc)+E(xc)   XCENC  =       181.29539029
  PAW double counting   =      4092.91394841    -4105.13435884
  entropy T*S    EENTRO =        -0.00000000
  eigenvalues    EBANDS =      -610.14840432
  atomic energy  EATOM  =      2209.41246822
  Solvation  Ediel_sol  =         0.00000000
  ---------------------------------------------------
  free energy    TOTEN  =       -99.57979384 eV

  energy without entropy =      -99.57979384  energy(sigma->0) =      -99.57979384


--------------------------------------------------------------------------------------------------------




--------------------------------------- Iteration     10(   5)  ---------------------------------------


    POTLOK:  cpu time      0.1263: real time      0.1273
    SETDIJ:  cpu time      0.0024: real time      0.0024
    EDDIAG:  cpu time      0.0371: real time      0.0374
  RMM-DIIS:  cpu time      0.1238: real time      0.1250
    ORTHCH:  cpu time      0.0028: real time      0.0029
       DOS:  cpu time      0.0001: real time      0.0001
    CHARGE:  cpu time      0.0195: real time      0.0196
    MIXING:  cpu time      0.0054: real time      0.0055
    --------------------------------------------
      LOOP:  cpu time      0.3174: real time      0.3202

 eigenvalue-minimisations  :    48
 total energy-change (2. order) :-0.8343231E-06  (-0.7712502E-06)
 number of electron      48.0000032 magnetization 
 augmentation part        2.7340468 magnetization 

 Broyden mixing:
  rms(total) = 0.25743E-03    rms(broyden)= 0.25729E-03
  rms(prec ) = 0.27359E-03
  weight for this iteration     100.00

 eigenvalues of (default mixing * dielectric matrix)
  average eigenvalue GAMMA=   1.6227
  2.2453  2.2453  1.0873  0.9130

 Free energy of the ion-electron system (eV)
  ---------------------------------------------------
  alpha Z        PSCENC =         9.74996640
  Ewald energy   TEWEN  =      1829.77495142
  -Hartree energ DENC   =     -3707.43464414
  -exchange      EXHF   =         0.00000000
  -V(xc)+E(xc)   XCENC  =       181.29515822
  PAW double counting   =      4092.59315160    -4104.81342982
  entropy T*S    EENTRO =        -0.00000000
  eigenvalues    EBANDS =      -610.15741658
  atomic energy  EATOM  =      2209.41246822
  Solvation  Ediel_sol  =         0.00000000
  ---------------------------------------------------
  free energy    TOTEN  =       -99.57979468 eV

  energy without entropy =      -99.57979468  energy(sigma->0) =      -99.57979468


--------------------------------------------------------------------------------------------------------




--------------------------------------- Iteration     10(   6)  ---------------------------------------


    POTLOK:  cpu time      0.1281: real time      0.1290
    SETDIJ:  cpu time      0.0024: real time      0.0024
    EDDIAG:  cpu time      0.0366: real time      0.0370
  RMM-DIIS:  cpu time      0.1241: real time      0.1252
    ORTHCH:  cpu time      0.0028: real time      0.0028
       DOS:  cpu time      0.0001: real time      0.0001
    --------------------------------------------
      LOOP:  cpu time      0.2941: real time      0.2965

 eigenvalue-minimisations  :    46
 total energy-change (2. order) :-0.3946275E-06  (-0.1773655E-06)
 number of electron      48.0000032 magnetization 
 augmentation part        2.7340468 magnetization 

 Free energy of the ion-electron system (eV)
  ---------------------------------------------------
  alpha Z        PSCENC =         9.74996640
  Ewald energy   TEWEN  =      1829.77495142
  -Hartree energ DENC   =     -3707.43889317
  -exchange      EXHF   =         0.00000000
  -V(xc)+E(xc)   XCENC  =       181.29534789
  PAW double counting   =      4092.43890143    -4104.65925768
  entropy T*S    EENTRO =        -0.00000000
  eigenvalues    EBANDS =      -610.15327958
  atomic energy  EATOM  =      2209.41246822
  Solvation  Ediel_sol  =         0.00000000
  ---------------------------------------------------
  free energy    TOTEN  =       -99.57979507 eV

  energy without entropy =      -99.57979507  energy(sigma->0) =      -99.57979507


--------------------------------------------------------------------------------------------------------




 average (electrostatic) potential at core
  the test charge radii are     0.6991  0.7167  0.5201  0.7215
  (the norm of the test charge is              1.0000)
       1 -57.8414       2 -58.3988       3 -59.6835       4 -60.0554       5 -58.2891
       6 -58.1032       7 -58.0716       8 -85.4097       9 -41.1511      10 -41.1512
      11 -41.2138      12 -44.6295      13 -41.7676      14 -41.4512      15 -41.4276
      16 -80.8413
 
 
 
 E-fermi :  -4.3748     XC(G=0):  -1.9395     alpha+bet : -1.0049

 Fermi energy:        -4.3748446203

 k-point     1 :       0.0000    0.0000    0.0000
  band No.  band energies     occupation 
      1     -30.0676      2.00000
      2     -26.1043      2.00000
      3     -20.7325      2.00000
      4     -18.6221      2.00000
      5     -17.6671      2.00000
      6     -16.3933      2.00000
      7     -14.8376      2.00000
      8     -14.1252      2.00000
      9     -13.2883      2.00000
     10     -11.9794      2.00000
     11     -11.6402      2.00000
     12     -10.7146      2.00000
     13     -10.5631      2.00000
     14      -9.6925      2.00000
     15      -9.6567      2.00000
     16      -9.3781      2.00000
     17      -9.0144      2.00000
     18      -8.6019      2.00000
     19      -8.4756      2.00000
     20      -8.0880      2.00000
     21      -7.6065      2.00000
     22      -7.5690      2.00000
     23      -5.4038      2.00000
     24      -4.8548      2.00000
     25      -0.4806      0.00000
     26      -0.3202      0.00000
     27      -0.2268      0.00000
     28       0.3210      0.00000
     29       0.6782      0.00000
     30       0.8450      0.00000
     31       1.1080      0.00000
     32       1.5718      0.00000
     33       1.8014      0.00000
     34       1.8679      0.00000
     35       2.1116      0.00000
     36       2.6109      0.00000


--------------------------------------------------------------------------------------------------------


 soft charge-density along one line, spin component           1
         0         1         2         3         4         5         6         7         8         9
 total charge-density along one line
 
 pseudopotential strength for first ion, spin component:           1
 10.197  13.560  -0.001  -0.000   0.000   0.004   0.000  -0.000
 13.560  18.030  -0.002  -0.000   0.000   0.005   0.000  -0.000
 -0.001  -0.002  -4.327  -0.000   0.000   8.467   0.001  -0.000
 -0.000  -0.000  -0.000  -4.326   0.000   0.001   8.464  -0.000
  0.000   0.000   0.000   0.000  -4.325  -0.000  -0.000   8.464
  0.004   0.005   8.467   0.001  -0.000 -18.704  -0.002   0.000
  0.000   0.000   0.001   8.464  -0.000  -0.002 -18.697   0.000
 -0.000  -0.000  -0.000  -0.000   8.464   0.000   0.000 -18.696
 total augmentation occupancy for first ion, spin component:           1
  7.720  -3.341   0.001  -0.005  -0.001  -0.011  -0.001   0.000
 -3.341   1.462   0.021   0.004   0.000   0.010   0.000  -0.000
  0.001   0.021   1.583  -0.011   0.001   0.138  -0.001  -0.000
 -0.005   0.004  -0.011   1.642  -0.001  -0.001   0.132  -0.000
 -0.001   0.000   0.001  -0.001   1.623  -0.000  -0.000   0.131
 -0.011   0.010   0.138  -0.001  -0.000   0.013  -0.000  -0.000
 -0.001   0.000  -0.001   0.132  -0.000  -0.000   0.011  -0.000
  0.000  -0.000  -0.000  -0.000   0.131  -0.000  -0.000   0.011


------------------------ aborting loop because EDIFF is reached ----------------------------------------





 total charge

# of ion       s       p       d       tot
------------------------------------------
    1        0.838   1.799   0.000   2.637
    2        0.859   1.768   0.000   2.627
    3        0.857   1.752   0.000   2.608
    4        0.856   1.711   0.000   2.568
    5        0.867   1.792   0.000   2.659
    6        0.863   1.772   0.000   2.635
    7        0.866   1.770   0.000   2.636
    8        1.747   4.360   0.000   6.107
    9        0.638   0.043   0.000   0.681
   10        0.637   0.043   0.000   0.681
   11        0.644   0.043   0.000   0.687
   12        0.616   0.119   0.000   0.735
   13        0.639   0.046   0.000   0.685
   14        0.645   0.045   0.000   0.690
   15        0.645   0.045   0.000   0.690
   16        1.566   3.598   0.000   5.164
--------------------------------------------------
tot         13.783  20.707   0.000  34.490
 
    CHARGE:  cpu time      0.0196: real time      0.0197
    FORLOC:  cpu time      0.0202: real time      0.0203
    FORNL :  cpu time      0.0639: real time      0.0646
    STRESS:  cpu time      0.2031: real time      0.2053
    FORCOR:  cpu time      0.1355: real time      0.1364
    FORHAR:  cpu time      0.0449: real time      0.0452
    MIXING:  cpu time      0.0056: real time      0.0057
    OFIELD:  cpu time      0.0001: real time      0.0001

  FORCE on cell =-STRESS in cart. coord.  units (eV):
  Direction    XX          YY          ZZ          XY          YZ          ZX
  --------------------------------------------------------------------------------------
  Alpha Z     9.74997     9.74997     9.74997
  Ewald    -511.92554  1087.19609  1254.50278   -27.05284   121.12655  -116.95150
  Hartree   700.12572  1467.21286  1540.10439   -17.43629    84.47223   -71.59223
  E(xc)    -198.88685  -194.98541  -194.57157    -0.04350     0.14500    -0.20823
  Local    -778.82130 -3065.09111 -3271.36150    43.14212  -193.30557   182.95378
  n-local  -109.57318  -110.02197  -108.02102     0.00764    -0.18080    -0.05884
  augment    25.02902    23.21661    20.05788     0.08439    -1.39694     0.25158
  Kinetic   864.05120   782.52770   749.25869     1.29006   -10.84174     5.61042
  Fock        0.00000     0.00000     0.00000     0.00000     0.00000     0.00000
  -------------------------------------------------------------------------------------
  Total      -0.25096    -0.19524    -0.28039    -0.00842     0.01874     0.00499
  in kB      -0.39067    -0.30394    -0.43649    -0.01310     0.02918     0.00776
  external pressure =       -0.38 kB  Pullay stress =        0.00 kB


 VOLUME and BASIS-vectors are now :
 -----------------------------------------------------------------------------
  energy-cutoff  :      500.00
  volume of cell :     1029.22
      direct lattice vectors                 reciprocal lattice vectors
     7.753300000  0.000000000  0.000000000     0.128977339  0.000000000  0.000000000
     0.000000000 11.819800000  0.000000000     0.000000000  0.084603800  0.000000000
     0.000000000  0.000000000 11.230800000     0.000000000  0.000000000  0.089040852

  length of vectors
     7.753300000 11.819800000 11.230800000     0.128977339  0.084603800  0.089040852


 FORCES acting on ions
    electron-ion (+dipol)            ewald-force                    non-local-force                 convergence-correction
 -----------------------------------------------------------------------------------------------
   0.325E+01 -.190E+03 -.412E+02   -.326E+01 0.191E+03 0.413E+02   0.161E-01 -.116E+01 -.110E+00   -.126E-04 0.440E-03 -.126E-03
   0.383E+01 -.109E+03 -.705E+02   -.391E+01 0.111E+03 0.719E+02   0.904E-01 -.117E+01 -.149E+01   0.647E-05 0.439E-03 0.863E-04
   -.884E-01 -.360E+02 0.112E+02   -.182E+00 0.341E+02 -.504E+01   0.269E+00 0.196E+01 -.616E+01   0.290E-04 0.503E-03 -.255E-03
   0.401E+00 0.761E+02 -.111E+02   -.839E+00 -.729E+02 0.197E+02   0.425E+00 -.323E+01 -.860E+01   -.120E-03 0.344E-03 -.232E-03
   0.137E+01 0.209E+03 -.673E+02   -.144E+01 -.211E+03 0.690E+02   0.697E-01 0.182E+01 -.164E+01   -.724E-04 -.354E-03 0.224E-03
   0.672E+01 0.112E+03 -.187E+03   -.678E+01 -.112E+03 0.189E+03   0.640E-01 0.114E+00 -.148E+01   -.706E-04 0.233E-03 0.511E-03
   0.885E+01 -.514E+02 -.199E+03   -.890E+01 0.517E+02 0.200E+03   0.562E-01 -.267E+00 -.101E+01   -.437E-04 0.429E-03 0.248E-03
   -.165E+02 0.275E+03 0.334E+03   0.187E+02 -.299E+03 -.377E+03   -.229E+01 0.247E+02 0.433E+02   -.668E-03 -.181E-03 -.259E-03
   -.523E+02 -.545E+02 0.180E+02   0.568E+02 0.566E+02 -.205E+02   -.449E+01 -.205E+01 0.246E+01   -.522E-04 0.329E-04 -.317E-04
   0.515E+02 -.534E+02 0.228E+02   -.558E+02 0.554E+02 -.256E+02   0.430E+01 -.196E+01 0.283E+01   0.333E-04 0.411E-04 -.357E-04
   0.296E+01 -.504E+02 -.619E+02   -.320E+01 0.524E+02 0.671E+02   0.245E+00 -.202E+01 -.517E+01   -.416E-05 0.344E-04 -.847E-04
   -.537E+01 0.296E+02 0.108E+03   0.574E+01 -.350E+02 -.114E+03   -.367E+00 0.536E+01 0.641E+01   0.218E-05 0.158E-03 0.385E-04
   -.487E+00 0.868E+02 -.900E+01   0.559E+00 -.926E+02 0.870E+01   -.774E-01 0.578E+01 0.305E+00   -.119E-05 -.851E-04 0.377E-04
   0.294E+01 0.445E+02 -.716E+02   -.315E+01 -.474E+02 0.765E+02   0.220E+00 0.296E+01 -.493E+01   -.182E-04 0.619E-05 0.694E-04
   0.392E+01 -.324E+02 -.782E+02   -.419E+01 0.352E+02 0.831E+02   0.277E+00 -.273E+01 -.500E+01   -.127E-04 0.270E-04 0.231E-04
   -.100E+02 -.236E+03 0.278E+03   0.983E+01 0.284E+03 -.283E+03   0.202E+00 -.483E+02 0.594E+01   0.108E-03 0.201E-03 -.922E-03
 -----------------------------------------------------------------------------------------------
   0.976E+00 0.203E+02 -.257E+02   -.888E-14 0.114E-12 -.114E-12   -.985E+00 -.202E+02 0.256E+02   -.897E-03 0.227E-02 -.709E-03
 
 
 POSITION                                       TOTAL-FORCE (eV/Angst)
 -----------------------------------------------------------------------------------
      3.85856      8.41717      6.10706         0.003513     -0.022229      0.008824
      3.87355      6.91480      6.10754         0.005120      0.017291      0.004369
      3.93875      6.22410      4.88668        -0.001330      0.003109     -0.014471
      3.95016      4.82747      4.89220        -0.012080     -0.035760      0.016428
      3.90174      4.07516      6.05295        -0.004483      0.037226      0.033788
      3.83942      4.76118      7.27067         0.005361     -0.007283      0.006512
      3.82488      6.15894      7.28677         0.003860     -0.009020      0.019407
      4.01411      4.21060      3.66004        -0.013799     -0.019507      0.001055
      4.75814      8.82211      5.62022        -0.003467      0.017421      0.008655
      2.99599      8.80454      5.54460         0.005145      0.016345      0.007406
      3.81017      8.80469      7.13270         0.002519      0.005802     -0.011808
      4.03056      6.27764      2.98488         0.002612      0.014888     -0.048233
      3.91627      2.98726      5.99368        -0.004524     -0.002004      0.016429
      3.79805      4.19983      8.20498         0.007018      0.017364     -0.015544
      3.77217      6.68587      8.24281         0.006951     -0.010724     -0.034921
      3.98858      6.92826      3.71112        -0.002415     -0.022919      0.002103
 -----------------------------------------------------------------------------------
    total drift:                               -0.009262      0.021151     -0.096488


--------------------------------------------------------------------------------------------------------



  FREE ENERGIE OF THE ION-ELECTRON SYSTEM (eV)
  ---------------------------------------------------
  free  energy   TOTEN  =       -99.57979507 eV

  energy  without entropy=      -99.57979507  energy(sigma->0) =      -99.57979507
 
 d Force = 0.2678434E-03[ 0.701E-04, 0.466E-03]  d Energy = 0.2688032E-03-0.960E-06
 d Force = 0.7841893E+00[ 0.784E+00, 0.784E+00]  d Ewald  = 0.7841891E+00 0.255E-06


--------------------------------------------------------------------------------------------------------


    POTLOK:  cpu time      0.1289: real time      0.1298


--------------------------------------------------------------------------------------------------------


 stress matrix after NEB project (eV)
     -0.25096     -0.00842      0.00499
     -0.00842     -0.19524      0.01874
      0.00499      0.01874     -0.28039
  FORCES: max atom, RMS     0.050546    0.028327
  FORCE total and by dimension    0.113309    0.048233
  Stress total and by dimension    0.424989    0.280394
 Conjugate gradient step on ions:
 trial-energy change:   -0.000269  1 .order   -0.000268   -0.000466   -0.000070
  (g-gl).g = 0.471E-03      g.g   = 0.442E-03  gl.gl    = 0.993E-03
 g(Force)  = 0.442E-03   g(Stress)= 0.000E+00 ortho     = 0.526E-05
 gamma     =   0.47412
 trial     =   1.04728
 opt step  =   1.23297  (harmonic =   1.23297) maximal distance =0.00157326
 next E    =   -99.579800   (d E  =  -0.00027)


--------------------------------------------------------------------------------------------------------


     LOOP+:  cpu time      2.6586: real time      2.7863
    4ORBIT:  cpu time      0.0000: real time      0.0000



 total charge

# of ion       s       p       d       tot
------------------------------------------
    1        0.838   1.799   0.000   2.637
    2        0.859   1.768   0.000   2.627
    3        0.857   1.752   0.000   2.608
    4        0.856   1.711   0.000   2.568
    5        0.867   1.792   0.000   2.659
    6        0.863   1.772   0.000   2.635
    7        0.866   1.770   0.000   2.636
    8        1.747   4.360   0.000   6.107
    9        0.638   0.043   0.000   0.681
   10        0.637   0.043   0.000   0.681
   11        0.644   0.043   0.000   0.687
   12        0.616   0.119   0.000   0.735
   13        0.639   0.046   0.000   0.685
   14        0.645   0.045   0.000   0.690
   15        0.645   0.045   0.000   0.690
   16        1.566   3.598   0.000   5.164
--------------------------------------------------
tot         13.783  20.707   0.000  34.490
 

 total amount of memory used by VASP MPI-rank0    58243. kBytes
=======================================================================

   base      :      30000. kBytes
   nonlr-proj:        453. kBytes
   fftplans  :       8683. kBytes
   grid      :      18151. kBytes
   one-center:         12. kBytes
   wavefun   :        944. kBytes
 
  
  
 General timing and accounting informations for this job:
 ========================================================
  
                  Total CPU time used (sec):       67.219
                            User time (sec):       59.592
                          System time (sec):        7.627
                         Elapsed time (sec):       73.098
  
                   Maximum memory used (kb):      240576.
                   Average memory used (kb):          N/A
  
                          Minor page faults:        30978
                          Major page faults:         5647
                 Voluntary context switches:         2539
