<?xml version="1.0" encoding="ISO-8859-1"?>
<modeling>
 <generator>
  <i name="program" type="string">vasp </i>
  <i name="version" type="string">6.4.1  </i>
  <i name="subversion" type="string">05Apr23 (build Jun 16 2023 21:25:53) gamma-only                       parallel </i>
  <i name="platform" type="string">LinuxIFC </i>
  <i name="date" type="string">2024 07 14 </i>
  <i name="time" type="string">18:50:55 </i>
 </generator>
 <incar>
  <i type="string" name="SYSTEM">QM9</i>
  <i type="string" name="ALGO">V</i>
  <i type="int" name="NELM">   150</i>
  <i type="int" name="NELMDL">   -20</i>
  <i type="int" name="NELMIN">     6</i>
  <i type="int" name="IBRION">     2</i>
  <i name="EDIFF">      0.00001000</i>
  <i name="EDIFFG">     -0.02000000</i>
  <i type="int" name="NSW">    10</i>
  <i type="int" name="ISIF">     2</i>
  <i type="int" name="ISYM">     0</i>
  <i name="ENCUT">    500.00000000</i>
  <i name="POTIM">      0.20000000</i>
  <i type="string" name="LREAL">Auto</i>
  <i type="int" name="ISMEAR">     0</i>
  <i name="SIGMA">      0.10000000</i>
  <i type="logical" name="LWAVE"> F  </i>
  <i type="logical" name="LCHARG"> F  </i>
  <i type="int" name="LORBIT">    11</i>
 </incar>
 <primitive_cell>
  <structure name="primitive_cell" >
   <crystal>
    <varray name="basis" >
     <v>       7.75330000       0.00000000       0.00000000 </v>
     <v>       0.00000000      11.81980000       0.00000000 </v>
     <v>       0.00000000       0.00000000      11.23080000 </v>
    </varray>
    <i name="volume">   1029.21808743 </i>
    <varray name="rec_basis" >
     <v>       0.12897734       0.00000000       0.00000000 </v>
     <v>       0.00000000       0.08460380       0.00000000 </v>
     <v>       0.00000000       0.00000000       0.08904085 </v>
    </varray>
   </crystal>
   <varray name="positions" >
    <v>       0.49762037       0.71183100       0.54367454 </v>
    <v>       0.49952923       0.58443459       0.54367454 </v>
    <v>       0.50797725       0.52622718       0.43537415 </v>
    <v>       0.50973134       0.40834024       0.43525840 </v>
    <v>       0.50341145       0.34532733       0.53875948 </v>
    <v>       0.49497633       0.40293406       0.64685508 </v>
    <v>       0.49313196       0.52076177       0.64835096 </v>
    <v>       0.51803748       0.35734953       0.32765253 </v>
    <v>       0.61306798       0.74618860       0.50062329 </v>
    <v>       0.38693202       0.74472495       0.49391851 </v>
    <v>       0.49144235       0.74474187       0.63447840 </v>
    <v>       0.51973998       0.53129495       0.26712256 </v>
    <v>       0.50512685       0.25381140       0.53344374 </v>
    <v>       0.48988173       0.35579282       0.72955622 </v>
    <v>       0.48656701       0.56508570       0.73287744 </v>
    <v>       0.51438742       0.58535677       0.33141005 </v>
   </varray>
  </structure>
  <varray name="primitive_index" >
   <v type="int" >        1 </v>
   <v type="int" >        2 </v>
   <v type="int" >        3 </v>
   <v type="int" >        4 </v>
   <v type="int" >        5 </v>
   <v type="int" >        6 </v>
   <v type="int" >        7 </v>
   <v type="int" >        8 </v>
   <v type="int" >        9 </v>
   <v type="int" >       10 </v>
   <v type="int" >       11 </v>
   <v type="int" >       12 </v>
   <v type="int" >       13 </v>
   <v type="int" >       14 </v>
   <v type="int" >       15 </v>
   <v type="int" >       16 </v>
  </varray>
 </primitive_cell>
 <kpoints>
  <generation param="Gamma">
   <v type="int" name="divisions">       1        1        1 </v>
   <v name="usershift">      0.00000000       0.00000000       0.00000000 </v>
   <v name="genvec1">      1.00000000       0.00000000       0.00000000 </v>
   <v name="genvec2">      0.00000000       1.00000000       0.00000000 </v>
   <v name="genvec3">      0.00000000       0.00000000       1.00000000 </v>
   <v name="shift">      0.00000000       0.00000000       0.00000000 </v>
  </generation>
  <varray name="kpointlist" >
   <v>       0.00000000       0.00000000       0.00000000 </v>
  </varray>
  <varray name="weights" >
   <v>       1.00000000 </v>
  </varray>
 </kpoints>
 <parameters>
  <separator name="general" >
   <i type="string" name="SYSTEM">QM9</i>
   <i type="logical" name="LCOMPAT"> F  </i>
  </separator>
  <separator name="electronic" >
   <i type="string" name="PREC">normal</i>
   <i name="ENMAX">    500.00000000</i>
   <i name="ENAUG">    644.87300000</i>
   <i name="EDIFF">      0.00001000</i>
   <i type="int" name="IALGO">    48</i>
   <i type="int" name="IWAVPR">    11</i>
   <i type="int" name="NBANDS">    36</i>
   <i type="int" name="NBANDSLOW">    -1</i>
   <i type="int" name="NBANDSHIGH">    -1</i>
   <i name="NELECT">     48.00000000</i>
   <i type="int" name="TURBO">     0</i>
   <i type="int" name="IRESTART">     0</i>
   <i type="int" name="NREBOOT">     0</i>
   <i type="int" name="NMIN">     0</i>
   <i name="EREF">      0.00000000</i>
   <separator name="electronic smearing" >
    <i type="int" name="ISMEAR">     0</i>
    <i name="SIGMA">      0.10000000</i>
    <i name="KSPACING">      0.50000000</i>
    <i type="logical" name="KGAMMA"> T  </i>
    <i type="logical" name="KBLOWUP"> T  </i>
   </separator>
   <separator name="electronic projectors" >
    <i type="logical" name="LREAL"> T  </i>
    <v name="ROPT">     -0.00050000     -0.00050000     -0.00050000     -0.00050000</v>
    <i type="int" name="LMAXPAW">  -100</i>
    <i type="int" name="LMAXMIX">     2</i>
    <i type="logical" name="NLSPLINE"> F  </i>
   </separator>
   <separator name="electronic startup" >
    <i type="int" name="ISTART">     0</i>
    <i type="int" name="ICHARG">     2</i>
    <i type="int" name="INIWAV">     1</i>
   </separator>
   <separator name="electronic spin" >
    <i type="int" name="ISPIN">     1</i>
    <i type="logical" name="LNONCOLLINEAR"> F  </i>
    <v name="MAGMOM">      1.00000000      1.00000000      1.00000000      1.00000000      1.00000000      1.00000000      1.00000000      1.00000000      1.00000000      1.00000000      1.00000000      1.00000000      1.00000000      1.00000000      1.00000000      1.00000000</v>
    <i name="NUPDOWN">     -1.00000000</i>
    <i type="logical" name="LSORBIT"> F  </i>
    <v name="SAXIS">      0.00000000      0.00000000      1.00000000</v>
    <i type="logical" name="LSPIRAL"> F  </i>
    <v name="QSPIRAL">      0.00000000      0.00000000      0.00000000</v>
    <i type="logical" name="LZEROZ"> F  </i>
   </separator>
   <separator name="electronic exchange-correlation" >
    <i type="logical" name="LASPH"> F  </i>
    <i type="logical" name="LMETAGGA"> F  </i>
   </separator>
   <separator name="electronic convergence" >
    <i type="int" name="NELM">   150</i>
    <i type="int" name="NELMDL">   -20</i>
    <i type="int" name="NELMIN">     6</i>
    <i name="ENINI">    500.00000000</i>
    <separator name="electronic convergence detail" >
     <i type="logical" name="LDIAG"> T  </i>
     <i type="logical" name="LSUBROT"> F  </i>
     <i name="WEIMIN">      0.00100000</i>
     <i name="EBREAK">      0.00000007</i>
     <i name="DEPER">      0.30000000</i>
     <i type="int" name="NRMM">     4</i>
     <i name="TIME">      0.40000000</i>
    </separator>
   </separator>
   <separator name="electronic mixer" >
    <i name="AMIX">      0.40000000</i>
    <i name="BMIX">      1.00000000</i>
    <i name="AMIN">      0.10000000</i>
    <i name="AMIX_MAG">      1.60000000</i>
    <i name="BMIX_MAG">      1.00000000</i>
    <separator name="electronic mixer details" >
     <i type="int" name="IMIX">     4</i>
     <i type="logical" name="MIXFIRST"> F  </i>
     <i type="int" name="MAXMIX">   -45</i>
     <i name="WC">    100.00000000</i>
     <i type="int" name="INIMIX">     1</i>
     <i type="int" name="MIXPRE">     1</i>
     <i type="int" name="MREMOVE">     5</i>
    </separator>
   </separator>
   <separator name="electronic dipolcorrection" >
    <i type="logical" name="LDIPOL"> F  </i>
    <i type="logical" name="LMONO"> F  </i>
    <i type="int" name="IDIPOL">     0</i>
    <i name="EPSILON">      1.00000000</i>
    <v name="DIPOL">   -100.00000000   -100.00000000   -100.00000000</v>
    <i name="EFIELD">      0.00000000</i>
   </separator>
  </separator>
  <separator name="grids" >
   <i type="int" name="NGX">    42</i>
   <i type="int" name="NGY">    70</i>
   <i type="int" name="NGZ">    64</i>
   <i type="int" name="NGXF">    84</i>
   <i type="int" name="NGYF">   140</i>
   <i type="int" name="NGZF">   128</i>
   <i type="logical" name="ADDGRID"> F  </i>
  </separator>
  <separator name="ionic" >
   <i type="int" name="NSW">    10</i>
   <i type="int" name="IBRION">     2</i>
   <i type="int" name="MDALGO">     0</i>
   <i type="int" name="ISIF">     2</i>
   <i name="PSTRESS">      0.00000000</i>
   <i name="EDIFFG">     -0.02000000</i>
   <i type="int" name="NFREE">     1</i>
   <i name="POTIM">      0.20000000</i>
   <i name="SMASS">     -3.00000000</i>
   <i name="SCALEE">      1.00000000</i>
  </separator>
  <separator name="ionic md" >
   <i name="TEBEG">      0.00010000</i>
   <i name="TEEND">      0.00010000</i>
   <i type="int" name="NBLOCK">     1</i>
   <i type="int" name="KBLOCK">    10</i>
   <i type="int" name="NPACO">   256</i>
   <i name="APACO">     10.00000000</i>
  </separator>
  <separator name="symmetry" >
   <i type="int" name="ISYM">     0</i>
   <i name="SYMPREC">      0.00001000</i>
  </separator>
  <separator name="dos" >
   <i type="int" name="LORBIT">    11</i>
   <v name="RWIGS">     -1.00000000     -1.00000000     -1.00000000     -1.00000000</v>
   <i type="int" name="NEDOS">   301</i>
   <i name="EMIN">     10.00000000</i>
   <i name="EMAX">    -10.00000000</i>
   <i name="EFERMI">      0.00000000</i>
  </separator>
  <separator name="writing" >
   <i type="int" name="NWRITE">     2</i>
   <i type="logical" name="LWAVE"> F  </i>
   <i type="logical" name="LDOWNSAMPLE"> F  </i>
   <i type="logical" name="LCHARG"> F  </i>
   <i type="logical" name="LPARD"> F  </i>
   <i type="logical" name="LVTOT"> F  </i>
   <i type="logical" name="LVHAR"> F  </i>
   <i type="logical" name="LELF"> F  </i>
   <i type="logical" name="LOPTICS"> F  </i>
   <v name="STM">      0.00000000      0.00000000      0.00000000      0.00000000      0.00000000      0.00000000      0.00000000</v>
  </separator>
  <separator name="performance" >
   <i type="int" name="NPAR">     4</i>
   <i type="int" name="NSIM">     4</i>
   <i type="int" name="NBLK">    -1</i>
   <i type="logical" name="LPLANE"> T  </i>
   <i type="logical" name="LSCALAPACK"> T  </i>
   <i type="logical" name="LSCAAWARE"> F  </i>
   <i type="logical" name="LSCALU"> F  </i>
   <i type="logical" name="LASYNC"> F  </i>
   <i type="logical" name="LORBITALREAL"> F  </i>
  </separator>
  <separator name="miscellaneous" >
   <i type="int" name="IDIOT">     3</i>
   <i type="int" name="PHON_NSTRUCT">    -1</i>
   <i type="logical" name="LMUSIC"> F  </i>
   <v name="POMASS">     12.01100000     18.99800000      1.00000000     16.00000000</v>
   <v name="DARWINR">      0.00000000      0.00000000      0.00000000      0.00000000</v>
   <v name="DARWINV">      1.00000000      1.00000000      1.00000000      1.00000000</v>
   <i type="logical" name="LCORR"> T  </i>
  </separator>
  <i type="logical" name="GGA_COMPAT"> T  </i>
  <i type="logical" name="LBERRY"> F  </i>
  <i type="int" name="ICORELEVEL">     0</i>
  <i type="logical" name="LDAU"> F  </i>
  <i type="int" name="I_CONSTRAINED_M">     0</i>
  <separator name="electronic exchange-correlation" >
   <i type="string" name="GGA">--</i>
   <i type="int" name="VOSKOWN">     0</i>
   <i type="logical" name="LHFCALC"> F  </i>
   <i type="string" name="PRECFOCK"></i>
   <i type="logical" name="LSYMGRAD"> F  </i>
   <i type="logical" name="LHFONE"> F  </i>
   <i type="logical" name="LRHFCALC"> F  </i>
   <i type="logical" name="LTHOMAS"> F  </i>
   <i type="logical" name="LMODELHF"> F  </i>
   <i type="logical" name="LFOCKACE"> F  </i>
   <i name="ENCUT4O">     -1.00000000</i>
   <i type="int" name="EXXOEP">     0</i>
   <i type="int" name="FOURORBIT">     0</i>
   <i name="AEXX">      0.00000000</i>
   <i name="HFALPHA">      0.00000000</i>
   <i name="MCALPHA">      0.00000000</i>
   <i name="ALDAX">      1.00000000</i>
   <i name="AGGAX">      1.00000000</i>
   <i name="ALDAC">      1.00000000</i>
   <i name="AGGAC">      1.00000000</i>
   <i type="int" name="NKREDX">     1</i>
   <i type="int" name="NKREDY">     1</i>
   <i type="int" name="NKREDZ">     1</i>
   <i type="logical" name="SHIFTRED"> F  </i>
   <i type="logical" name="ODDONLY"> F  </i>
   <i type="logical" name="EVENONLY"> F  </i>
   <i type="int" name="LMAXFOCK">     0</i>
   <i type="int" name="NMAXFOCKAE">     0</i>
   <i type="logical" name="LFOCKAEDFT"> F  </i>
   <i name="HFSCREEN">      0.00000000</i>
   <i name="HFSCREENC">      0.00000000</i>
   <i type="int" name="NBANDSGWLOW">     0</i>
  </separator>
  <separator name="vdW DFT" >
   <i type="logical" name="LUSE_VDW"> F  </i>
   <i type="int" name="IVDW_NL">     1</i>
   <i type="logical" name="LSPIN_VDW"> F  </i>
   <i name="Zab_VDW">     -0.84910000</i>
   <i name="PARAM1">      0.12340000</i>
   <i name="PARAM2">      1.00000000</i>
   <i name="PARAM3">      0.00000000</i>
  </separator>
  <separator name="model GW" >
   <i type="int" name="MODEL_GW">     0</i>
   <i name="MODEL_EPS0">     38.59567828</i>
   <i name="MODEL_ALPHA">      1.00000000</i>
  </separator>
  <separator name="linear response parameters" >
   <i type="logical" name="LEPSILON"> F  </i>
   <i type="logical" name="LRPA"> F  </i>
   <i type="logical" name="LNABLA"> F  </i>
   <i type="logical" name="LVEL"> F  </i>
   <i name="CSHIFT">      0.10000000</i>
   <i name="OMEGAMAX">     -1.00000000</i>
   <i name="DEG_THRESHOLD">      0.00200000</i>
   <i name="RTIME">     -0.10000000</i>
   <i name="WPLASMAI">      0.00000000</i>
   <v name="DFIELD">      0.00000000      0.00000000      0.00000000</v>
   <v name="WPLASMA">      0.00000000      0.00000000      0.00000000      0.00000000      0.00000000      0.00000000      0.00000000      0.00000000      0.00000000</v>
  </separator>
  <separator name="orbital magnetization" >
   <i type="logical" name="NUCIND"> F  </i>
   <v name="MAGPOS">      0.00000000      0.00000000      0.00000000</v>
   <i type="logical" name="LNICSALL"> T  </i>
   <i type="logical" name="ORBITALMAG"> F  </i>
   <i type="logical" name="LMAGBLOCH"> F  </i>
   <i type="logical" name="LCHIMAG"> F  </i>
   <i type="logical" name="LGAUGE"> T  </i>
   <i type="int" name="MAGATOM">     0</i>
   <v name="MAGDIPOL">      0.00000000      0.00000000      0.00000000</v>
   <v name="AVECCONST">      0.00000000      0.00000000      0.00000000</v>
  </separator>
  <separator name="response functions" >
   <i type="logical" name="LALL_IN_ONE"> F  </i>
   <i type="int" name="IALL_IN_ONE">    -1</i>
   <i type="int" name="NBANDS_WAVE">    -1</i>
   <i type="logical" name="LFINITE_TEMPERATURE"> F  </i>
   <i type="logical" name="LADDER"> F  </i>
   <i type="logical" name="LRPAFORCE"> F  </i>
   <i type="logical" name="LFXC"> F  </i>
   <i type="logical" name="LHARTREE"> T  </i>
   <i type="int" name="IBSE">     0</i>
   <v type="int" name="KPOINT">    -1     0     0     0</v>
   <i type="logical" name="LTCTC"> F  </i>
   <i type="logical" name="LTCTE"> F  </i>
   <i type="logical" name="LTETE"> F  </i>
   <i type="logical" name="LTRIPLET"> F  </i>
   <i type="logical" name="LFXCEPS"> F  </i>
   <i type="logical" name="LFXHEG"> F  </i>
   <i type="int" name="NATURALO">     2</i>
   <i type="logical" name="LHOLEGF"> F  </i>
   <i type="logical" name="L2ORDER"> F  </i>
   <i type="logical" name="LDMP1"> F  </i>
   <i type="logical" name="LMP2LT"> F  </i>
   <i type="logical" name="LSMP2LT"> F  </i>
   <i type="logical" name="LGWLF"> F  </i>
   <i name="ENCUTGW">     -1.60000002</i>
   <i name="ENCUTGWSOFT">     -1.60000002</i>
   <i name="ENCUTLF">     -1.00000000</i>
   <i type="logical" name="LESF_SPLINES"> F  </i>
   <i type="int" name="LMAXMP2">    -1</i>
   <i name="SCISSOR">      0.00000000</i>
   <i type="int" name="NOMEGA">     0</i>
   <i type="int" name="NOMEGAR">     0</i>
   <i type="int" name="NBANDSGW">    -1</i>
   <i type="int" name="NBANDSO">    -1</i>
   <i type="int" name="NBANDSV">    -1</i>
   <i type="int" name="NELMGW">     1</i>
   <i type="int" name="NELMHF">     1</i>
   <i type="int" name="DIM">     3</i>
   <i type="int" name="IESPILON">     4</i>
   <i type="int" name="ANTIRES">     0</i>
   <i name="OMEGAMAX">    -30.00000000</i>
   <i name="OMEGAMIN">    -30.00000000</i>
   <i name="OMEGATL">   -200.00000000</i>
   <i type="int" name="OMEGAGRID">     0</i>
   <i name="CSHIFT">     -0.10000000</i>
   <i type="logical" name="LSELFENERGY"> F  </i>
   <i type="logical" name="LSPECTRAL"> F  </i>
   <i type="logical" name="LSPECTRALGW"> F  </i>
   <i type="logical" name="LSINGLES"> F  </i>
   <i type="logical" name="LFERMIGW"> F  </i>
   <i type="logical" name="ODDONLYGW"> F  </i>
   <i type="logical" name="EVENONLYGW"> F  </i>
   <i type="int" name="NKREDLFX">     1</i>
   <i type="int" name="NKREDLFY">     1</i>
   <i type="int" name="NKREDLFZ">     1</i>
   <i type="int" name="MAXMEM">  2800</i>
   <i type="int" name="TELESCOPE">     0</i>
   <i type="int" name="NTAUPAR">    -1</i>
   <i type="int" name="NOMEGAPAR">    -1</i>
   <i name="DAMP_NEWTON">      0.80000001</i>
   <i name="LAMBDA">      1.00000000</i>
  </separator>
  <separator name="External order field" >
   <i name="OFIELD_KAPPA">      0.00000000</i>
   <v name="OFIELD_K">      0.00000000      0.00000000      0.00000000</v>
   <i name="OFIELD_Q6_NEAR">      0.00000000</i>
   <i name="OFIELD_Q6_FAR">      0.00000000</i>
   <i name="OFIELD_A">      0.00000000</i>
  </separator>
  <separator name="optional k-points parameters" >
   <i type="int" name="KPOINTS_OPT_MODE">     1</i>
   <i type="logical" name="LKPOINTS_OPT"> F  </i>
  </separator>
  <separator name="solvation model" >
   <i type="logical" name="LSOL"> F  </i>
  </separator>
 </parameters>
 <atominfo>
  <atoms>      16 </atoms>
  <types>       4 </types>
  <array name="atoms" >
   <dimension dim="1">ion</dimension>
   <field type="string">element</field>
   <field type="int">atomtype</field>
   <set>
    <rc><c>C </c><c>   1</c></rc>
    <rc><c>C </c><c>   1</c></rc>
    <rc><c>C </c><c>   1</c></rc>
    <rc><c>C </c><c>   1</c></rc>
    <rc><c>C </c><c>   1</c></rc>
    <rc><c>C </c><c>   1</c></rc>
    <rc><c>C </c><c>   1</c></rc>
    <rc><c>F </c><c>   2</c></rc>
    <rc><c>H </c><c>   3</c></rc>
    <rc><c>H </c><c>   3</c></rc>
    <rc><c>H </c><c>   3</c></rc>
    <rc><c>H </c><c>   3</c></rc>
    <rc><c>H </c><c>   3</c></rc>
    <rc><c>H </c><c>   3</c></rc>
    <rc><c>H </c><c>   3</c></rc>
    <rc><c>O </c><c>   4</c></rc>
   </set>
  </array>
  <array name="atomtypes" >
   <dimension dim="1">type</dimension>
   <field type="int">atomspertype</field>
   <field type="string">element</field>
   <field>mass</field>
   <field>valence</field>
   <field type="string">pseudopotential</field>
   <set>
    <rc><c>   7</c><c>C </c><c>     12.01100000</c><c>      4.00000000</c><c>  PAW_PBE C 08Apr2002                   </c></rc>
    <rc><c>   1</c><c>F </c><c>     18.99800000</c><c>      7.00000000</c><c>  PAW_PBE F 08Apr2002                   </c></rc>
    <rc><c>   7</c><c>H </c><c>      1.00000000</c><c>      1.00000000</c><c>  PAW_PBE H 15Jun2001                   </c></rc>
    <rc><c>   1</c><c>O </c><c>     16.00000000</c><c>      6.00000000</c><c>  PAW_PBE O 08Apr2002                   </c></rc>
   </set>
  </array>
 </atominfo>
 <structure name="initialpos" >
  <crystal>
   <varray name="basis" >
    <v>       7.75330000       0.00000000       0.00000000 </v>
    <v>       0.00000000      11.81980000       0.00000000 </v>
    <v>       0.00000000       0.00000000      11.23080000 </v>
   </varray>
   <i name="volume">   1029.21808743 </i>
   <varray name="rec_basis" >
    <v>       0.12897734       0.00000000       0.00000000 </v>
    <v>       0.00000000       0.08460380       0.00000000 </v>
    <v>       0.00000000       0.00000000       0.08904085 </v>
   </varray>
  </crystal>
  <varray name="positions" >
   <v>       0.49762037       0.71183100       0.54367454 </v>
   <v>       0.49952923       0.58443459       0.54367454 </v>
   <v>       0.50797725       0.52622718       0.43537415 </v>
   <v>       0.50973134       0.40834024       0.43525840 </v>
   <v>       0.50341145       0.34532733       0.53875948 </v>
   <v>       0.49497633       0.40293406       0.64685508 </v>
   <v>       0.49313196       0.52076177       0.64835096 </v>
   <v>       0.51803748       0.35734953       0.32765253 </v>
   <v>       0.61306798       0.74618860       0.50062329 </v>
   <v>       0.38693202       0.74472495       0.49391851 </v>
   <v>       0.49144235       0.74474187       0.63447840 </v>
   <v>       0.51973998       0.53129495       0.26712256 </v>
   <v>       0.50512685       0.25381140       0.53344374 </v>
   <v>       0.48988173       0.35579282       0.72955622 </v>
   <v>       0.48656701       0.56508570       0.73287744 </v>
   <v>       0.51438742       0.58535677       0.33141005 </v>
  </varray>
 </structure>
 <calculation>
  <scstep>
   <time name="diag">    0.15    0.36</time>
   <time name="diis">    0.19    0.20</time>
   <time name="orth">    0.00    0.00</time>
   <time name="total">    0.56    0.82</time>
   <energy>
    <i name="alphaZ">      9.74996640 </i>
    <i name="ewald">   1859.77474422 </i>
    <i name="hartreedc">  -3541.52417622 </i>
    <i name="XCdc">    172.63078735 </i>
    <i name="pawpsdc">   1660.34980416 </i>
    <i name="pawaedc">  -1671.29803938 </i>
    <i name="eentropy">     -0.00000000 </i>
    <i name="bandstr">    102.05409802 </i>
    <i name="atom">   2209.41246822 </i>
    <i name="e_fr_energy">    801.14965276 </i>
    <i name="e_wo_entrp">    801.14965276 </i>
    <i name="e_0_energy">    801.14965276 </i>
   </energy>
  </scstep>
  <scstep>
   <time name="diag">    0.09    0.10</time>
   <time name="diis">    0.20    0.21</time>
   <time name="orth">    0.00    0.00</time>
   <time name="total">    0.30    0.31</time>
   <energy>
    <i name="e_fr_energy">    402.77650102 </i>
    <i name="e_wo_entrp">    402.81746797 </i>
    <i name="e_0_energy">    402.79698449 </i>
   </energy>
  </scstep>
  <scstep>
   <time name="diag">    0.08    0.08</time>
   <time name="diis">    0.19    0.20</time>
   <time name="orth">    0.00    0.00</time>
   <time name="total">    0.28    0.28</time>
   <energy>
    <i name="e_fr_energy">    258.96827279 </i>
    <i name="e_wo_entrp">    259.16414389 </i>
    <i name="e_0_energy">    259.06620834 </i>
   </energy>
  </scstep>
  <scstep>
   <time name="diag">    0.08    0.08</time>
   <time name="diis">    0.19    0.19</time>
   <time name="orth">    0.00    0.00</time>
   <time name="total">    0.27    0.28</time>
   <energy>
    <i name="e_fr_energy">     82.49295342 </i>
    <i name="e_wo_entrp">     82.49295908 </i>
    <i name="e_0_energy">     82.49295625 </i>
   </energy>
  </scstep>
  <scstep>
   <time name="diag">    0.09    0.09</time>
   <time name="diis">    0.19    0.19</time>
   <time name="orth">    0.00    0.00</time>
   <time name="total">    0.28    0.29</time>
   <energy>
    <i name="e_fr_energy">      2.93667565 </i>
    <i name="e_wo_entrp">      2.94517173 </i>
    <i name="e_0_energy">      2.94092369 </i>
   </energy>
  </scstep>
  <scstep>
   <time name="diag">    0.09    0.09</time>
   <time name="diis">    0.19    0.19</time>
   <time name="orth">    0.01    0.01</time>
   <time name="total">    0.28    0.29</time>
   <energy>
    <i name="e_fr_energy">    -66.49486921 </i>
    <i name="e_wo_entrp">    -66.49486921 </i>
    <i name="e_0_energy">    -66.49486921 </i>
   </energy>
  </scstep>
  <scstep>
   <time name="diag">    0.09    0.09</time>
   <time name="diis">    0.18    0.19</time>
   <time name="orth">    0.00    0.01</time>
   <time name="total">    0.28    0.28</time>
   <energy>
    <i name="e_fr_energy">    -94.10682363 </i>
    <i name="e_wo_entrp">    -94.10682363 </i>
    <i name="e_0_energy">    -94.10682363 </i>
   </energy>
  </scstep>
  <scstep>
   <time name="diag">    0.09    0.09</time>
   <time name="diis">    0.19    0.19</time>
   <time name="orth">    0.01    0.01</time>
   <time name="total">    0.28    0.29</time>
   <energy>
    <i name="e_fr_energy">   -104.90674346 </i>
    <i name="e_wo_entrp">   -104.90674346 </i>
    <i name="e_0_energy">   -104.90674346 </i>
   </energy>
  </scstep>
  <scstep>
   <time name="diag">    0.08    0.09</time>
   <time name="diis">    0.19    0.20</time>
   <time name="orth">    0.01    0.01</time>
   <time name="total">    0.28    0.29</time>
   <energy>
    <i name="e_fr_energy">   -107.84354640 </i>
    <i name="e_wo_entrp">   -107.84354640 </i>
    <i name="e_0_energy">   -107.84354640 </i>
   </energy>
  </scstep>
  <scstep>
   <time name="diag">    0.08    0.08</time>
   <time name="diis">    0.19    0.19</time>
   <time name="orth">    0.00    0.00</time>
   <time name="total">    0.28    0.28</time>
   <energy>
    <i name="e_fr_energy">   -108.87637114 </i>
    <i name="e_wo_entrp">   -108.87637114 </i>
    <i name="e_0_energy">   -108.87637114 </i>
   </energy>
  </scstep>
  <scstep>
   <time name="diag">    0.08    0.08</time>
   <time name="diis">    0.20    0.20</time>
   <time name="orth">    0.00    0.00</time>
   <time name="total">    0.28    0.29</time>
   <energy>
    <i name="e_fr_energy">   -109.23788987 </i>
    <i name="e_wo_entrp">   -109.23788987 </i>
    <i name="e_0_energy">   -109.23788987 </i>
   </energy>
  </scstep>
  <scstep>
   <time name="diag">    0.08    0.08</time>
   <time name="diis">    0.19    0.20</time>
   <time name="orth">    0.00    0.00</time>
   <time name="total">    0.28    0.28</time>
   <energy>
    <i name="e_fr_energy">   -109.37864367 </i>
    <i name="e_wo_entrp">   -109.37864367 </i>
    <i name="e_0_energy">   -109.37864367 </i>
   </energy>
  </scstep>
  <scstep>
   <time name="diag">    0.08    0.08</time>
   <time name="diis">    0.19    0.19</time>
   <time name="orth">    0.00    0.00</time>
   <time name="total">    0.28    0.28</time>
   <energy>
    <i name="e_fr_energy">   -109.43290679 </i>
    <i name="e_wo_entrp">   -109.43290679 </i>
    <i name="e_0_energy">   -109.43290679 </i>
   </energy>
  </scstep>
  <scstep>
   <time name="diag">    0.09    0.10</time>
   <time name="diis">    0.20    0.20</time>
   <time name="orth">    0.00    0.00</time>
   <time name="total">    0.30    0.30</time>
   <energy>
    <i name="e_fr_energy">   -109.45620243 </i>
    <i name="e_wo_entrp">   -109.45620243 </i>
    <i name="e_0_energy">   -109.45620243 </i>
   </energy>
  </scstep>
  <scstep>
   <time name="diag">    0.08    0.08</time>
   <time name="diis">    0.35    0.35</time>
   <time name="orth">    0.00    0.00</time>
   <time name="total">    0.43    0.44</time>
   <energy>
    <i name="e_fr_energy">   -109.47124248 </i>
    <i name="e_wo_entrp">   -109.47124248 </i>
    <i name="e_0_energy">   -109.47124248 </i>
   </energy>
  </scstep>
  <scstep>
   <time name="diag">    0.08    0.08</time>
   <time name="diis">    0.36    0.36</time>
   <time name="orth">    0.00    0.00</time>
   <time name="total">    0.44    0.45</time>
   <energy>
    <i name="e_fr_energy">   -109.47355633 </i>
    <i name="e_wo_entrp">   -109.47355633 </i>
    <i name="e_0_energy">   -109.47355633 </i>
   </energy>
  </scstep>
  <scstep>
   <time name="diag">    0.08    0.08</time>
   <time name="diis">    0.32    0.33</time>
   <time name="orth">    0.00    0.00</time>
   <time name="total">    0.41    0.41</time>
   <energy>
    <i name="e_fr_energy">   -109.47370900 </i>
    <i name="e_wo_entrp">   -109.47370900 </i>
    <i name="e_0_energy">   -109.47370900 </i>
   </energy>
  </scstep>
  <scstep>
   <time name="diag">    0.09    0.09</time>
   <time name="diis">    0.29    0.31</time>
   <time name="orth">    0.00    0.00</time>
   <time name="total">    0.38    0.41</time>
   <energy>
    <i name="e_fr_energy">   -109.47372993 </i>
    <i name="e_wo_entrp">   -109.47372993 </i>
    <i name="e_0_energy">   -109.47372993 </i>
   </energy>
  </scstep>
  <scstep>
   <time name="diag">    0.08    0.09</time>
   <time name="diis">    0.20    0.20</time>
   <time name="orth">    0.00    0.00</time>
   <time name="total">    0.29    0.29</time>
   <energy>
    <i name="e_fr_energy">   -109.47373267 </i>
    <i name="e_wo_entrp">   -109.47373267 </i>
    <i name="e_0_energy">   -109.47373267 </i>
   </energy>
  </scstep>
  <scstep>
   <time name="diag">    0.08    0.08</time>
   <time name="diis">    0.22    0.22</time>
   <time name="orth">    0.01    0.01</time>
   <time name="total">    0.36    0.37</time>
   <energy>
    <i name="e_fr_energy">   -109.47373300 </i>
    <i name="e_wo_entrp">   -109.47373300 </i>
    <i name="e_0_energy">   -109.47373300 </i>
   </energy>
  </scstep>
  <scstep>
   <time name="diag">    0.07    0.07</time>
   <time name="diis">    0.51    0.52</time>
   <time name="orth">    0.01    0.01</time>
   <time name="total">    0.90    0.92</time>
   <energy>
    <i name="e_fr_energy">   -101.69129665 </i>
    <i name="e_wo_entrp">   -101.69129665 </i>
    <i name="e_0_energy">   -101.69129665 </i>
   </energy>
  </scstep>
  <scstep>
   <time name="diag">    0.06    0.06</time>
   <time name="diis">    0.54    0.55</time>
   <time name="orth">    0.00    0.00</time>
   <time name="total">    0.90    0.92</time>
   <energy>
    <i name="e_fr_energy">    -99.86109911 </i>
    <i name="e_wo_entrp">    -99.86109911 </i>
    <i name="e_0_energy">    -99.86109911 </i>
   </energy>
  </scstep>
  <scstep>
   <time name="diag">    0.08    0.08</time>
   <time name="diis">    0.53    0.54</time>
   <time name="orth">    0.00    0.00</time>
   <time name="total">    0.87    0.88</time>
   <energy>
    <i name="e_fr_energy">    -99.57684830 </i>
    <i name="e_wo_entrp">    -99.57684830 </i>
    <i name="e_0_energy">    -99.57684830 </i>
   </energy>
  </scstep>
  <scstep>
   <time name="diag">    0.09    0.09</time>
   <time name="diis">    0.44    0.45</time>
   <time name="orth">    0.01    0.01</time>
   <time name="total">    0.80    0.81</time>
   <energy>
    <i name="e_fr_energy">    -99.54266122 </i>
    <i name="e_wo_entrp">    -99.54266122 </i>
    <i name="e_0_energy">    -99.54266122 </i>
   </energy>
  </scstep>
  <scstep>
   <time name="diag">    0.09    0.09</time>
   <time name="diis">    0.34    0.35</time>
   <time name="orth">    0.01    0.01</time>
   <time name="total">    0.73    0.75</time>
   <energy>
    <i name="e_fr_energy">    -99.53621489 </i>
    <i name="e_wo_entrp">    -99.53621489 </i>
    <i name="e_0_energy">    -99.53621489 </i>
   </energy>
  </scstep>
  <scstep>
   <time name="diag">    0.08    0.08</time>
   <time name="diis">    0.42    0.42</time>
   <time name="orth">    0.00    0.00</time>
   <time name="total">    0.80    0.81</time>
   <energy>
    <i name="e_fr_energy">    -99.53571796 </i>
    <i name="e_wo_entrp">    -99.53571796 </i>
    <i name="e_0_energy">    -99.53571796 </i>
   </energy>
  </scstep>
  <scstep>
   <time name="diag">    0.08    0.08</time>
   <time name="diis">    0.36    0.37</time>
   <time name="orth">    0.00    0.00</time>
   <time name="total">    0.69    0.70</time>
   <energy>
    <i name="e_fr_energy">    -99.54058423 </i>
    <i name="e_wo_entrp">    -99.54058423 </i>
    <i name="e_0_energy">    -99.54058423 </i>
   </energy>
  </scstep>
  <scstep>
   <time name="diag">    0.08    0.08</time>
   <time name="diis">    0.33    0.34</time>
   <time name="orth">    0.00    0.00</time>
   <time name="total">    0.67    0.68</time>
   <energy>
    <i name="e_fr_energy">    -99.54675080 </i>
    <i name="e_wo_entrp">    -99.54675080 </i>
    <i name="e_0_energy">    -99.54675080 </i>
   </energy>
  </scstep>
  <scstep>
   <time name="diag">    0.09    0.09</time>
   <time name="diis">    0.30    0.30</time>
   <time name="orth">    0.00    0.00</time>
   <time name="total">    0.65    0.66</time>
   <energy>
    <i name="e_fr_energy">    -99.55099622 </i>
    <i name="e_wo_entrp">    -99.55099622 </i>
    <i name="e_0_energy">    -99.55099622 </i>
   </energy>
  </scstep>
  <scstep>
   <time name="diag">    0.08    0.09</time>
   <time name="diis">    0.29    0.30</time>
   <time name="orth">    0.00    0.00</time>
   <time name="total">    0.67    0.69</time>
   <energy>
    <i name="e_fr_energy">    -99.55347950 </i>
    <i name="e_wo_entrp">    -99.55347950 </i>
    <i name="e_0_energy">    -99.55347950 </i>
   </energy>
  </scstep>
  <scstep>
   <time name="diag">    0.07    0.07</time>
   <time name="diis">    0.27    0.27</time>
   <time name="orth">    0.00    0.01</time>
   <time name="total">    0.64    0.65</time>
   <energy>
    <i name="e_fr_energy">    -99.55406700 </i>
    <i name="e_wo_entrp">    -99.55406700 </i>
    <i name="e_0_energy">    -99.55406700 </i>
   </energy>
  </scstep>
  <scstep>
   <time name="diag">    0.08    0.09</time>
   <time name="diis">    0.27    0.27</time>
   <time name="orth">    0.00    0.00</time>
   <time name="total">    0.61    0.63</time>
   <energy>
    <i name="e_fr_energy">    -99.55419795 </i>
    <i name="e_wo_entrp">    -99.55419795 </i>
    <i name="e_0_energy">    -99.55419795 </i>
   </energy>
  </scstep>
  <scstep>
   <time name="diag">    0.08    0.08</time>
   <time name="diis">    0.20    0.21</time>
   <time name="orth">    0.00    0.00</time>
   <time name="total">    0.53    0.54</time>
   <energy>
    <i name="e_fr_energy">    -99.55430726 </i>
    <i name="e_wo_entrp">    -99.55430726 </i>
    <i name="e_0_energy">    -99.55430726 </i>
   </energy>
  </scstep>
  <scstep>
   <time name="diag">    0.09    0.09</time>
   <time name="diis">    0.19    0.20</time>
   <time name="orth">    0.00    0.00</time>
   <time name="total">    0.56    0.57</time>
   <energy>
    <i name="e_fr_energy">    -99.55433551 </i>
    <i name="e_wo_entrp">    -99.55433551 </i>
    <i name="e_0_energy">    -99.55433551 </i>
   </energy>
  </scstep>
  <scstep>
   <time name="diag">    0.05    0.06</time>
   <time name="diis">    0.17    0.18</time>
   <time name="orth">    0.00    0.00</time>
   <time name="total">    0.48    0.48</time>
   <energy>
    <i name="e_fr_energy">    -99.55436043 </i>
    <i name="e_wo_entrp">    -99.55436043 </i>
    <i name="e_0_energy">    -99.55436043 </i>
   </energy>
  </scstep>
  <scstep>
   <time name="diag">    0.06    0.06</time>
   <time name="diis">    0.19    0.19</time>
   <time name="orth">    0.00    0.00</time>
   <time name="total">    0.41    0.41</time>
   <energy>
    <i name="alphaZ">      9.74996640 </i>
    <i name="ewald">   1859.77474422 </i>
    <i name="hartreedc">  -3735.66671181 </i>
    <i name="XCdc">    181.70859749 </i>
    <i name="pawpsdc">   4158.47909511 </i>
    <i name="pawaedc">  -4170.75719548 </i>
    <i name="eentropy">     -0.00000000 </i>
    <i name="bandstr">   -612.25532658 </i>
    <i name="atom">   2209.41246822 </i>
    <i name="e_fr_energy">    -99.55436244 </i>
    <i name="e_wo_entrp">    -99.55436244 </i>
    <i name="e_0_energy">    -99.55436244 </i>
   </energy>
  </scstep>
  <structure>
   <crystal>
    <varray name="basis" >
     <v>       7.75330000       0.00000000       0.00000000 </v>
     <v>       0.00000000      11.81980000       0.00000000 </v>
     <v>       0.00000000       0.00000000      11.23080000 </v>
    </varray>
    <i name="volume">   1029.21808743 </i>
    <varray name="rec_basis" >
     <v>       0.12897734       0.00000000       0.00000000 </v>
     <v>       0.00000000       0.08460380       0.00000000 </v>
     <v>       0.00000000       0.00000000       0.08904085 </v>
    </varray>
   </crystal>
   <varray name="positions" >
    <v>       0.49762037       0.71183100       0.54367454 </v>
    <v>       0.49952923       0.58443459       0.54367454 </v>
    <v>       0.50797725       0.52622718       0.43537415 </v>
    <v>       0.50973134       0.40834024       0.43525840 </v>
    <v>       0.50341145       0.34532733       0.53875948 </v>
    <v>       0.49497633       0.40293406       0.64685508 </v>
    <v>       0.49313196       0.52076177       0.64835096 </v>
    <v>       0.51803748       0.35734953       0.32765253 </v>
    <v>       0.61306798       0.74618860       0.50062329 </v>
    <v>       0.38693202       0.74472495       0.49391851 </v>
    <v>       0.49144235       0.74474187       0.63447840 </v>
    <v>       0.51973998       0.53129495       0.26712256 </v>
    <v>       0.50512685       0.25381140       0.53344374 </v>
    <v>       0.48988173       0.35579282       0.72955622 </v>
    <v>       0.48656701       0.56508570       0.73287744 </v>
    <v>       0.51438742       0.58535677       0.33141005 </v>
   </varray>
  </structure>
  <varray name="forces" >
   <v>       0.01259239      -0.20916192       0.00069312 </v>
   <v>      -0.00443598       0.30365774       0.05740447 </v>
   <v>      -0.00033461      -0.03186835       0.11186981 </v>
   <v>      -0.04755932       0.30336900       0.72994802 </v>
   <v>      -0.01225467      -0.02050252      -0.01466965 </v>
   <v>       0.01772140       0.01477685       0.00271106 </v>
   <v>       0.01877755      -0.00070042       0.01035075 </v>
   <v>       0.01048844      -0.47409325      -0.86715479 </v>
   <v>       0.12748147       0.05109439      -0.06618395 </v>
   <v>      -0.12109156       0.04919106      -0.07831284 </v>
   <v>      -0.00583986       0.03500120       0.15173307 </v>
   <v>       0.02699647      -0.30720316      -0.45920008 </v>
   <v>       0.00345876      -0.22861714       0.01572528 </v>
   <v>      -0.00702165      -0.11286661       0.18267260 </v>
   <v>      -0.00972833       0.10922426       0.18822067 </v>
   <v>      -0.00925050       0.51869889       0.03419244 </v>
  </varray>
  <varray name="stress" >
   <v>      -0.08685887      -0.07813093      -0.24630191 </v>
   <v>      -0.07813093       2.79907945       0.81111385 </v>
   <v>      -0.24630191       0.81111385       4.77101539 </v>
  </varray>
  <energy>
   <i name="e_fr_energy">    -99.55436244 </i>
   <i name="e_wo_entrp">    -99.55436244 </i>
   <i name="e_0_energy">    -99.55436244 </i>
  </energy>
  <time name="totalsc">   18.69   19.36</time>
 </calculation>
 <calculation>
  <scstep>
   <time name="diag">    0.08    0.08</time>
   <time name="diis">    0.31    0.32</time>
   <time name="orth">    0.00    0.00</time>
   <time name="total">    0.66    0.67</time>
   <energy>
    <i name="alphaZ">      9.74996640 </i>
    <i name="ewald">   1844.96417929 </i>
    <i name="hartreedc">  -3724.11231801 </i>
    <i name="XCdc">    181.56413791 </i>
    <i name="pawpsdc">   4158.47735817 </i>
    <i name="pawaedc">  -4170.75546408 </i>
    <i name="eentropy">     -0.00000000 </i>
    <i name="bandstr">   -608.85491717 </i>
    <i name="atom">   2209.41246822 </i>
    <i name="e_fr_energy">    -99.55458928 </i>
    <i name="e_wo_entrp">    -99.55458928 </i>
    <i name="e_0_energy">    -99.55458928 </i>
   </energy>
  </scstep>
  <scstep>
   <time name="diag">    0.09    0.09</time>
   <time name="diis">    0.31    0.31</time>
   <time name="orth">    0.00    0.00</time>
   <time name="total">    0.64    0.65</time>
   <energy>
    <i name="e_fr_energy">    -99.56721451 </i>
    <i name="e_wo_entrp">    -99.56721451 </i>
    <i name="e_0_energy">    -99.56721451 </i>
   </energy>
  </scstep>
  <scstep>
   <time name="diag">    0.09    0.09</time>
   <time name="diis">    0.30    0.30</time>
   <time name="orth">    0.01    0.01</time>
   <time name="total">    0.68    0.70</time>
   <energy>
    <i name="e_fr_energy">    -99.56936418 </i>
    <i name="e_wo_entrp">    -99.56936418 </i>
    <i name="e_0_energy">    -99.56936418 </i>
   </energy>
  </scstep>
  <scstep>
   <time name="diag">    0.08    0.08</time>
   <time name="diis">    0.28    0.29</time>
   <time name="orth">    0.00    0.00</time>
   <time name="total">    0.65    0.67</time>
   <energy>
    <i name="e_fr_energy">    -99.56895389 </i>
    <i name="e_wo_entrp">    -99.56895389 </i>
    <i name="e_0_energy">    -99.56895389 </i>
   </energy>
  </scstep>
  <scstep>
   <time name="diag">    0.07    0.07</time>
   <time name="diis">    0.30    0.30</time>
   <time name="orth">    0.01    0.01</time>
   <time name="total">    0.66    0.68</time>
   <energy>
    <i name="e_fr_energy">    -99.56884502 </i>
    <i name="e_wo_entrp">    -99.56884502 </i>
    <i name="e_0_energy">    -99.56884502 </i>
   </energy>
  </scstep>
  <scstep>
   <time name="diag">    0.08    0.08</time>
   <time name="diis">    0.32    0.32</time>
   <time name="orth">    0.00    0.00</time>
   <time name="total">    0.66    0.67</time>
   <energy>
    <i name="e_fr_energy">    -99.56888492 </i>
    <i name="e_wo_entrp">    -99.56888492 </i>
    <i name="e_0_energy">    -99.56888492 </i>
   </energy>
  </scstep>
  <scstep>
   <time name="diag">    0.08    0.08</time>
   <time name="diis">    0.31    0.31</time>
   <time name="orth">    0.00    0.00</time>
   <time name="total">    0.64    0.65</time>
   <energy>
    <i name="e_fr_energy">    -99.56893059 </i>
    <i name="e_wo_entrp">    -99.56893059 </i>
    <i name="e_0_energy">    -99.56893059 </i>
   </energy>
  </scstep>
  <scstep>
   <time name="diag">    0.08    0.08</time>
   <time name="diis">    0.27    0.28</time>
   <time name="orth">    0.00    0.00</time>
   <time name="total">    0.64    0.65</time>
   <energy>
    <i name="e_fr_energy">    -99.56897030 </i>
    <i name="e_wo_entrp">    -99.56897030 </i>
    <i name="e_0_energy">    -99.56897030 </i>
   </energy>
  </scstep>
  <scstep>
   <time name="diag">    0.08    0.08</time>
   <time name="diis">    0.25    0.25</time>
   <time name="orth">    0.00    0.01</time>
   <time name="total">    0.61    0.62</time>
   <energy>
    <i name="e_fr_energy">    -99.56904094 </i>
    <i name="e_wo_entrp">    -99.56904094 </i>
    <i name="e_0_energy">    -99.56904094 </i>
   </energy>
  </scstep>
  <scstep>
   <time name="diag">    0.07    0.07</time>
   <time name="diis">    0.20    0.20</time>
   <time name="orth">    0.00    0.01</time>
   <time name="total">    0.52    0.53</time>
   <energy>
    <i name="e_fr_energy">    -99.56910146 </i>
    <i name="e_wo_entrp">    -99.56910146 </i>
    <i name="e_0_energy">    -99.56910146 </i>
   </energy>
  </scstep>
  <scstep>
   <time name="diag">    0.07    0.07</time>
   <time name="diis">    0.21    0.22</time>
   <time name="orth">    0.00    0.00</time>
   <time name="total">    0.51    0.52</time>
   <energy>
    <i name="e_fr_energy">    -99.56916433 </i>
    <i name="e_wo_entrp">    -99.56916433 </i>
    <i name="e_0_energy">    -99.56916433 </i>
   </energy>
  </scstep>
  <scstep>
   <time name="diag">    0.07    0.07</time>
   <time name="diis">    0.20    0.20</time>
   <time name="orth">    0.00    0.00</time>
   <time name="total">    0.57    0.57</time>
   <energy>
    <i name="e_fr_energy">    -99.56918800 </i>
    <i name="e_wo_entrp">    -99.56918800 </i>
    <i name="e_0_energy">    -99.56918800 </i>
   </energy>
  </scstep>
  <scstep>
   <time name="diag">    0.07    0.07</time>
   <time name="diis">    0.20    0.20</time>
   <time name="orth">    0.00    0.00</time>
   <time name="total">    0.52    0.53</time>
   <energy>
    <i name="alphaZ">      9.74996640 </i>
    <i name="ewald">   1844.96417929 </i>
    <i name="hartreedc">  -3722.42372517 </i>
    <i name="XCdc">    181.47176866 </i>
    <i name="pawpsdc">   4131.17074934 </i>
    <i name="pawaedc">  -4143.40071470 </i>
    <i name="eentropy">     -0.00000000 </i>
    <i name="bandstr">   -610.51388854 </i>
    <i name="atom">   2209.41246822 </i>
    <i name="e_fr_energy">    -99.56919650 </i>
    <i name="e_wo_entrp">    -99.56919650 </i>
    <i name="e_0_energy">    -99.56919650 </i>
   </energy>
  </scstep>
  <structure>
   <crystal>
    <varray name="basis" >
     <v>       7.75330000       0.00000000       0.00000000 </v>
     <v>       0.00000000      11.81980000       0.00000000 </v>
     <v>       0.00000000       0.00000000      11.23080000 </v>
    </varray>
    <i name="volume">   1029.21808743 </i>
    <varray name="rec_basis" >
     <v>       0.12897734       0.00000000       0.00000000 </v>
     <v>       0.00000000       0.08460380       0.00000000 </v>
     <v>       0.00000000       0.00000000       0.08904085 </v>
    </varray>
   </crystal>
   <varray name="positions" >
    <v>       0.49765171       0.71148952       0.54367573 </v>
    <v>       0.49951819       0.58493035       0.54377317 </v>
    <v>       0.50797642       0.52617515       0.43556637 </v>
    <v>       0.50961297       0.40883552       0.43651261 </v>
    <v>       0.50338095       0.34529386       0.53873428 </v>
    <v>       0.49502044       0.40295818       0.64685974 </v>
    <v>       0.49317869       0.52076063       0.64836875 </v>
    <v>       0.51806359       0.35657553       0.32616256 </v>
    <v>       0.61338527       0.74627202       0.50050957 </v>
    <v>       0.38663063       0.74480526       0.49378395 </v>
    <v>       0.49142782       0.74479902       0.63473911 </v>
    <v>       0.51980717       0.53079340       0.26633355 </v>
    <v>       0.50513546       0.25343816       0.53347076 </v>
    <v>       0.48986425       0.35560856       0.72987009 </v>
    <v>       0.48654280       0.56526402       0.73320085 </v>
    <v>       0.51436440       0.58620360       0.33146880 </v>
   </varray>
  </structure>
  <varray name="forces" >
   <v>      -0.00878299       0.18378692       0.01727969 </v>
   <v>       0.00102581      -0.08687221       0.06354869 </v>
   <v>      -0.00153285       0.41577422      -0.01550547 </v>
   <v>       0.03072583      -0.23287955      -0.59596855 </v>
   <v>      -0.02126345      -0.26753338       0.25610592 </v>
   <v>       0.00820210      -0.06977088       0.15262000 </v>
   <v>       0.00881963       0.14520887       0.08602776 </v>
   <v>      -0.03094116       0.03112750       0.12071773 </v>
   <v>       0.02206235      -0.00529910      -0.01480035 </v>
   <v>      -0.01391204      -0.00804405      -0.01376119 </v>
   <v>      -0.00038769      -0.01715789       0.02511997 </v>
   <v>      -0.00972356       0.23214805       0.15555939 </v>
   <v>       0.00010831      -0.07720852       0.00099004 </v>
   <v>      -0.00194104      -0.03551763       0.05952094 </v>
   <v>      -0.00364765       0.03242196       0.07779316 </v>
   <v>       0.02118841      -0.24018431      -0.37524772 </v>
  </varray>
  <varray name="stress" >
   <v>      -0.32482501      -0.03835241      -0.11562339 </v>
   <v>      -0.03835239       1.81942305      -0.49306321 </v>
   <v>      -0.11562339      -0.49306322       1.77350702 </v>
  </varray>
  <energy>
   <i name="e_fr_energy">    -99.56919650 </i>
   <i name="e_wo_entrp">    -99.56919650 </i>
   <i name="e_0_energy">    -99.56919650 </i>
  </energy>
  <time name="totalsc">    9.21    9.49</time>
 </calculation>
 <calculation>
  <scstep>
   <time name="diag">    0.08    0.08</time>
   <time name="diis">    0.29    0.30</time>
   <time name="orth">    0.01    0.01</time>
   <time name="total">    0.64    0.65</time>
   <energy>
    <i name="alphaZ">      9.74996640 </i>
    <i name="ewald">   1849.08090509 </i>
    <i name="hartreedc">  -3725.64740326 </i>
    <i name="XCdc">    181.51138404 </i>
    <i name="pawpsdc">   4131.15319428 </i>
    <i name="pawaedc">  -4143.38325981 </i>
    <i name="eentropy">     -0.00000000 </i>
    <i name="bandstr">   -611.44769813 </i>
    <i name="atom">   2209.41246822 </i>
    <i name="e_fr_energy">    -99.57044319 </i>
    <i name="e_wo_entrp">    -99.57044319 </i>
    <i name="e_0_energy">    -99.57044319 </i>
   </energy>
  </scstep>
  <scstep>
   <time name="diag">    0.08    0.09</time>
   <time name="diis">    0.26    0.26</time>
   <time name="orth">    0.00    0.00</time>
   <time name="total">    0.62    0.64</time>
   <energy>
    <i name="e_fr_energy">    -99.57153444 </i>
    <i name="e_wo_entrp">    -99.57153444 </i>
    <i name="e_0_energy">    -99.57153444 </i>
   </energy>
  </scstep>
  <scstep>
   <time name="diag">    0.06    0.06</time>
   <time name="diis">    0.24    0.24</time>
   <time name="orth">    0.00    0.00</time>
   <time name="total">    0.56    0.57</time>
   <energy>
    <i name="e_fr_energy">    -99.57170854 </i>
    <i name="e_wo_entrp">    -99.57170854 </i>
    <i name="e_0_energy">    -99.57170854 </i>
   </energy>
  </scstep>
  <scstep>
   <time name="diag">    0.09    0.09</time>
   <time name="diis">    0.28    0.29</time>
   <time name="orth">    0.00    0.00</time>
   <time name="total">    0.66    0.67</time>
   <energy>
    <i name="e_fr_energy">    -99.57168118 </i>
    <i name="e_wo_entrp">    -99.57168118 </i>
    <i name="e_0_energy">    -99.57168118 </i>
   </energy>
  </scstep>
  <scstep>
   <time name="diag">    0.08    0.08</time>
   <time name="diis">    0.29    0.30</time>
   <time name="orth">    0.00    0.00</time>
   <time name="total">    0.67    0.68</time>
   <energy>
    <i name="e_fr_energy">    -99.57166836 </i>
    <i name="e_wo_entrp">    -99.57166836 </i>
    <i name="e_0_energy">    -99.57166836 </i>
   </energy>
  </scstep>
  <scstep>
   <time name="diag">    0.07    0.07</time>
   <time name="diis">    0.25    0.26</time>
   <time name="orth">    0.00    0.01</time>
   <time name="total">    0.58    0.58</time>
   <energy>
    <i name="alphaZ">      9.74996640 </i>
    <i name="ewald">   1849.08090509 </i>
    <i name="hartreedc">  -3726.10321412 </i>
    <i name="XCdc">    181.53768844 </i>
    <i name="pawpsdc">   4138.38246591 </i>
    <i name="pawaedc">  -4150.62658532 </i>
    <i name="eentropy">     -0.00000000 </i>
    <i name="bandstr">   -611.00536702 </i>
    <i name="atom">   2209.41246822 </i>
    <i name="e_fr_energy">    -99.57167241 </i>
    <i name="e_wo_entrp">    -99.57167241 </i>
    <i name="e_0_energy">    -99.57167241 </i>
   </energy>
  </scstep>
  <structure>
   <crystal>
    <varray name="basis" >
     <v>       7.75330000       0.00000000       0.00000000 </v>
     <v>       0.00000000      11.81980000       0.00000000 </v>
     <v>       0.00000000       0.00000000      11.23080000 </v>
    </varray>
    <i name="volume">   1029.21808743 </i>
    <varray name="rec_basis" >
     <v>       0.12897734       0.00000000       0.00000000 </v>
     <v>       0.00000000       0.08460380       0.00000000 </v>
     <v>       0.00000000       0.00000000       0.08904085 </v>
    </varray>
   </crystal>
   <varray name="positions" >
    <v>       0.49764289       0.71158565       0.54367539 </v>
    <v>       0.49952130       0.58479077       0.54374540 </v>
    <v>       0.50797665       0.52618980       0.43551225 </v>
    <v>       0.50964630       0.40869609       0.43615951 </v>
    <v>       0.50338954       0.34530328       0.53874137 </v>
    <v>       0.49500802       0.40295139       0.64685842 </v>
    <v>       0.49316553       0.52076095       0.64836374 </v>
    <v>       0.51805624       0.35679343       0.32658204 </v>
    <v>       0.61329594       0.74624853       0.50054158 </v>
    <v>       0.38671548       0.74478265       0.49382183 </v>
    <v>       0.49143191       0.74478293       0.63466571 </v>
    <v>       0.51978826       0.53093461       0.26655568 </v>
    <v>       0.50513303       0.25354324       0.53346316 </v>
    <v>       0.48986917       0.35566043       0.72978173 </v>
    <v>       0.48654961       0.56521382       0.73310980 </v>
    <v>       0.51437088       0.58596519       0.33145226 </v>
   </varray>
  </structure>
  <varray name="forces" >
   <v>       0.00113963       0.07109884       0.01291491 </v>
   <v>       0.00389153       0.02670402       0.06463798 </v>
   <v>      -0.00086417       0.29134398       0.01717703 </v>
   <v>       0.00073726      -0.09498576      -0.24498827 </v>
   <v>      -0.01855431      -0.19659487       0.17958492 </v>
   <v>       0.01096130      -0.04642580       0.11185693 </v>
   <v>       0.01332390       0.10658909       0.06831611 </v>
   <v>      -0.01713223      -0.10434543      -0.14978693 </v>
   <v>       0.05167357       0.01090501      -0.02871265 </v>
   <v>      -0.04379929       0.00836683      -0.03135959 </v>
   <v>      -0.00182850      -0.00221451       0.06115631 </v>
   <v>       0.00025749       0.08689156      -0.00909319 </v>
   <v>       0.00115863      -0.11925460       0.00565440 </v>
   <v>      -0.00330864      -0.05680664       0.09460453 </v>
   <v>      -0.00526793       0.05427907       0.10941487 </v>
   <v>       0.00761174      -0.03555080      -0.26137736 </v>
  </varray>
  <varray name="stress" >
   <v>      -0.30902046      -0.05202699      -0.14645857 </v>
   <v>      -0.05202697       2.05127396      -0.13723467 </v>
   <v>      -0.14645857      -0.13723466       2.55846911 </v>
  </varray>
  <energy>
   <i name="e_fr_energy">    -99.57167241 </i>
   <i name="e_wo_entrp">    -99.57167241 </i>
   <i name="e_0_energy">    -99.57167241 </i>
  </energy>
  <time name="totalsc">    4.99    5.15</time>
 </calculation>
 <calculation>
  <scstep>
   <time name="diag">    0.09    0.09</time>
   <time name="diis">    0.28    0.28</time>
   <time name="orth">    0.01    0.01</time>
   <time name="total">    0.65    0.66</time>
   <energy>
    <i name="alphaZ">      9.74996640 </i>
    <i name="ewald">   1840.86853498 </i>
    <i name="hartreedc">  -3718.89533199 </i>
    <i name="XCdc">    181.47210100 </i>
    <i name="pawpsdc">   4138.39996901 </i>
    <i name="pawaedc">  -4150.64356581 </i>
    <i name="eentropy">     -0.00000000 </i>
    <i name="bandstr">   -609.93828662 </i>
    <i name="atom">   2209.41246822 </i>
    <i name="e_fr_energy">    -99.57414481 </i>
    <i name="e_wo_entrp">    -99.57414481 </i>
    <i name="e_0_energy">    -99.57414481 </i>
   </energy>
  </scstep>
  <scstep>
   <time name="diag">    0.08    0.08</time>
   <time name="diis">    0.22    0.23</time>
   <time name="orth">    0.00    0.00</time>
   <time name="total">    0.55    0.55</time>
   <energy>
    <i name="e_fr_energy">    -99.57609365 </i>
    <i name="e_wo_entrp">    -99.57609365 </i>
    <i name="e_0_energy">    -99.57609365 </i>
   </energy>
  </scstep>
  <scstep>
   <time name="diag">    0.09    0.09</time>
   <time name="diis">    0.31    0.31</time>
   <time name="orth">    0.00    0.00</time>
   <time name="total">    0.65    0.66</time>
   <energy>
    <i name="e_fr_energy">    -99.57641904 </i>
    <i name="e_wo_entrp">    -99.57641904 </i>
    <i name="e_0_energy">    -99.57641904 </i>
   </energy>
  </scstep>
  <scstep>
   <time name="diag">    0.09    0.09</time>
   <time name="diis">    0.28    0.29</time>
   <time name="orth">    0.01    0.01</time>
   <time name="total">    0.66    0.67</time>
   <energy>
    <i name="e_fr_energy">    -99.57637858 </i>
    <i name="e_wo_entrp">    -99.57637858 </i>
    <i name="e_0_energy">    -99.57637858 </i>
   </energy>
  </scstep>
  <scstep>
   <time name="diag">    0.08    0.08</time>
   <time name="diis">    0.28    0.28</time>
   <time name="orth">    0.00    0.01</time>
   <time name="total">    0.66    0.67</time>
   <energy>
    <i name="e_fr_energy">    -99.57640505 </i>
    <i name="e_wo_entrp">    -99.57640505 </i>
    <i name="e_0_energy">    -99.57640505 </i>
   </energy>
  </scstep>
  <scstep>
   <time name="diag">    0.08    0.08</time>
   <time name="diis">    0.28    0.28</time>
   <time name="orth">    0.01    0.01</time>
   <time name="total">    0.60    0.61</time>
   <energy>
    <i name="alphaZ">      9.74996640 </i>
    <i name="ewald">   1840.86853498 </i>
    <i name="hartreedc">  -3718.15093366 </i>
    <i name="XCdc">    181.44399873 </i>
    <i name="pawpsdc">   4121.63484604 </i>
    <i name="pawaedc">  -4133.86624009 </i>
    <i name="eentropy">     -0.00000000 </i>
    <i name="bandstr">   -610.66904383 </i>
    <i name="atom">   2209.41246822 </i>
    <i name="e_fr_energy">    -99.57640322 </i>
    <i name="e_wo_entrp">    -99.57640322 </i>
    <i name="e_0_energy">    -99.57640322 </i>
   </energy>
  </scstep>
  <structure>
   <crystal>
    <varray name="basis" >
     <v>       7.75330000       0.00000000       0.00000000 </v>
     <v>       0.00000000      11.81980000       0.00000000 </v>
     <v>       0.00000000       0.00000000      11.23080000 </v>
    </varray>
    <i name="volume">   1029.21808743 </i>
    <varray name="rec_basis" >
     <v>       0.12897734       0.00000000       0.00000000 </v>
     <v>       0.00000000       0.08460380       0.00000000 </v>
     <v>       0.00000000       0.00000000       0.08904085 </v>
    </varray>
   </crystal>
   <varray name="positions" >
    <v>       0.49765033       0.71164321       0.54369652 </v>
    <v>       0.49952876       0.58490739       0.54386523 </v>
    <v>       0.50797449       0.52663074       0.43556937 </v>
    <v>       0.50963001       0.40862514       0.43595321 </v>
    <v>       0.50334131       0.34499530       0.53902873 </v>
    <v>       0.49504048       0.40288354       0.64704051 </v>
    <v>       0.49320394       0.52092500       0.64847722 </v>
    <v>       0.51801997       0.35651484       0.32611233 </v>
    <v>       0.61346562       0.74627803       0.50047771 </v>
    <v>       0.38656673       0.74480777       0.49375050 </v>
    <v>       0.49142540       0.74478822       0.63480457 </v>
    <v>       0.51979909       0.53099212       0.26642082 </v>
    <v>       0.50513707       0.25330268       0.53347644 </v>
    <v>       0.48985874       0.35554486       0.72998291 </v>
    <v>       0.48653356       0.56532459       0.73333645 </v>
    <v>       0.51438525       0.58603934       0.33103739 </v>
   </varray>
  </structure>
  <varray name="forces" >
   <v>      -0.00035476       0.13060518       0.01943162 </v>
   <v>       0.00066204       0.05886664       0.03702359 </v>
   <v>       0.00634958      -0.07085799      -0.14486549 </v>
   <v>      -0.00627725      -0.04789384      -0.09908776 </v>
   <v>      -0.00853444       0.00560330      -0.06178563 </v>
   <v>       0.01087141       0.01982523       0.09381967 </v>
   <v>       0.01018554      -0.01202056       0.08935484 </v>
   <v>      -0.02726585      -0.00941680       0.02377580 </v>
   <v>       0.01507624       0.00097597      -0.00729083 </v>
   <v>      -0.00885590      -0.00126418      -0.00697668 </v>
   <v>      -0.00010143      -0.00028173       0.02500972 </v>
   <v>       0.00349788       0.00743104      -0.06677857 </v>
   <v>      -0.00067131      -0.13802225       0.02176200 </v>
   <v>      -0.00220888      -0.03631339       0.08676359 </v>
   <v>      -0.00272418       0.04549000       0.07867825 </v>
   <v>       0.01035133       0.04727340      -0.08883411 </v>
  </varray>
  <varray name="stress" >
   <v>      -0.32093162      -0.03685971      -0.09729176 </v>
   <v>      -0.03685971       1.18874950       0.09393405 </v>
   <v>      -0.09729177       0.09393405       1.48995693 </v>
  </varray>
  <energy>
   <i name="e_fr_energy">    -99.57640322 </i>
   <i name="e_wo_entrp">    -99.57640322 </i>
   <i name="e_0_energy">    -99.57640322 </i>
  </energy>
  <time name="totalsc">    5.00    5.15</time>
 </calculation>
 <calculation>
  <scstep>
   <time name="diag">    0.08    0.08</time>
   <time name="diis">    0.25    0.25</time>
   <time name="orth">    0.00    0.00</time>
   <time name="total">    0.57    0.58</time>
   <energy>
    <i name="alphaZ">      9.74996640 </i>
    <i name="ewald">   1838.86602324 </i>
    <i name="hartreedc">  -3716.40620309 </i>
    <i name="XCdc">    181.42884890 </i>
    <i name="pawpsdc">   4121.07827399 </i>
    <i name="pawaedc">  -4133.31089440 </i>
    <i name="eentropy">     -0.00000000 </i>
    <i name="bandstr">   -610.39499865 </i>
    <i name="atom">   2209.41246822 </i>
    <i name="e_fr_energy">    -99.57651539 </i>
    <i name="e_wo_entrp">    -99.57651539 </i>
    <i name="e_0_energy">    -99.57651539 </i>
   </energy>
  </scstep>
  <scstep>
   <time name="diag">    0.09    0.09</time>
   <time name="diis">    0.28    0.29</time>
   <time name="orth">    0.00    0.00</time>
   <time name="total">    0.66    0.67</time>
   <energy>
    <i name="e_fr_energy">    -99.57663428 </i>
    <i name="e_wo_entrp">    -99.57663428 </i>
    <i name="e_0_energy">    -99.57663428 </i>
   </energy>
  </scstep>
  <scstep>
   <time name="diag">    0.09    0.09</time>
   <time name="diis">    0.29    0.30</time>
   <time name="orth">    0.00    0.00</time>
   <time name="total">    0.68    0.69</time>
   <energy>
    <i name="e_fr_energy">    -99.57665452 </i>
    <i name="e_wo_entrp">    -99.57665452 </i>
    <i name="e_0_energy">    -99.57665452 </i>
   </energy>
  </scstep>
  <scstep>
   <time name="diag">    0.08    0.08</time>
   <time name="diis">    0.25    0.26</time>
   <time name="orth">    0.00    0.00</time>
   <time name="total">    0.63    0.64</time>
   <energy>
    <i name="e_fr_energy">    -99.57665096 </i>
    <i name="e_wo_entrp">    -99.57665096 </i>
    <i name="e_0_energy">    -99.57665096 </i>
   </energy>
  </scstep>
  <scstep>
   <time name="diag">    0.07    0.07</time>
   <time name="diis">    0.21    0.22</time>
   <time name="orth">    0.00    0.00</time>
   <time name="total">    0.58    0.59</time>
   <energy>
    <i name="e_fr_energy">    -99.57665219 </i>
    <i name="e_wo_entrp">    -99.57665219 </i>
    <i name="e_0_energy">    -99.57665219 </i>
   </energy>
  </scstep>
  <scstep>
   <time name="diag">    0.06    0.06</time>
   <time name="diis">    0.22    0.22</time>
   <time name="orth">    0.01    0.01</time>
   <time name="total">    0.52    0.53</time>
   <energy>
    <i name="alphaZ">      9.74996640 </i>
    <i name="ewald">   1838.86602324 </i>
    <i name="hartreedc">  -3716.21009035 </i>
    <i name="XCdc">    181.42233519 </i>
    <i name="pawpsdc">   4116.34060199 </i>
    <i name="pawaedc">  -4128.57166690 </i>
    <i name="eentropy">     -0.00000000 </i>
    <i name="bandstr">   -610.58629094 </i>
    <i name="atom">   2209.41246822 </i>
    <i name="e_fr_energy">    -99.57665315 </i>
    <i name="e_wo_entrp">    -99.57665315 </i>
    <i name="e_0_energy">    -99.57665315 </i>
   </energy>
  </scstep>
  <structure>
   <crystal>
    <varray name="basis" >
     <v>       7.75330000       0.00000000       0.00000000 </v>
     <v>       0.00000000      11.81980000       0.00000000 </v>
     <v>       0.00000000       0.00000000      11.23080000 </v>
    </varray>
    <i name="volume">   1029.21808743 </i>
    <varray name="rec_basis" >
     <v>       0.12897734       0.00000000       0.00000000 </v>
     <v>       0.00000000       0.08460380       0.00000000 </v>
     <v>       0.00000000       0.00000000       0.08904085 </v>
    </varray>
   </crystal>
   <varray name="positions" >
    <v>       0.49765216       0.71165728       0.54370168 </v>
    <v>       0.49953058       0.58493591       0.54389453 </v>
    <v>       0.50797397       0.52673859       0.43558334 </v>
    <v>       0.50962602       0.40860779       0.43590275 </v>
    <v>       0.50332952       0.34491997       0.53909901 </v>
    <v>       0.49504842       0.40286694       0.64708504 </v>
    <v>       0.49321334       0.52096512       0.64850498 </v>
    <v>       0.51801110       0.35644670       0.32599745 </v>
    <v>       0.61350711       0.74628525       0.50046209 </v>
    <v>       0.38653034       0.74481391       0.49373305 </v>
    <v>       0.49142381       0.74478951       0.63483853 </v>
    <v>       0.51980174       0.53100619       0.26638783 </v>
    <v>       0.50513805       0.25324385       0.53347969 </v>
    <v>       0.48985619       0.35551659       0.73003212 </v>
    <v>       0.48652963       0.56535169       0.73339188 </v>
    <v>       0.51438877       0.58605748       0.33093592 </v>
   </varray>
  </structure>
  <varray name="forces" >
   <v>      -0.00073712       0.14595064       0.02150266 </v>
   <v>       0.00104839       0.07089117       0.03422363 </v>
   <v>       0.00876507      -0.14466530      -0.18585788 </v>
   <v>      -0.00804728      -0.03908664      -0.06835826 </v>
   <v>      -0.00578551       0.04945955      -0.11648914 </v>
   <v>       0.01049444       0.03408841       0.09323525 </v>
   <v>       0.01006241      -0.03844377       0.09737154 </v>
   <v>      -0.02480905       0.01011322       0.05097719 </v>
   <v>       0.00627280      -0.00163046      -0.00239603 </v>
   <v>      -0.00040718      -0.00377512      -0.00134063 </v>
   <v>       0.00032273       0.00023383       0.01610905 </v>
   <v>       0.00434979      -0.01186026      -0.08147848 </v>
   <v>      -0.00118423      -0.14296664       0.02558079 </v>
   <v>      -0.00191085      -0.03147787       0.08505546 </v>
   <v>      -0.00206093       0.04337143       0.07129876 </v>
   <v>       0.00362653       0.05979783      -0.03943390 </v>
  </varray>
  <varray name="stress" >
   <v>      -0.35072614      -0.02667063      -0.07686154 </v>
   <v>      -0.02667063       0.94841460       0.15833441 </v>
   <v>      -0.07686154       0.15833442       1.21063305 </v>
  </varray>
  <energy>
   <i name="e_fr_energy">    -99.57665315 </i>
   <i name="e_wo_entrp">    -99.57665315 </i>
   <i name="e_0_energy">    -99.57665315 </i>
  </energy>
  <time name="totalsc">    4.82    4.94</time>
 </calculation>
 <calculation>
  <scstep>
   <time name="diag">    0.08    0.08</time>
   <time name="diis">    0.32    0.33</time>
   <time name="orth">    0.00    0.00</time>
   <time name="total">    0.66    0.67</time>
   <energy>
    <i name="alphaZ">      9.74996640 </i>
    <i name="ewald">   1833.66083106 </i>
    <i name="hartreedc">  -3711.66975360 </i>
    <i name="XCdc">    181.37444564 </i>
    <i name="pawpsdc">   4116.07374548 </i>
    <i name="pawaedc">  -4128.30521062 </i>
    <i name="eentropy">     -0.00000000 </i>
    <i name="bandstr">   -609.87461854 </i>
    <i name="atom">   2209.41246822 </i>
    <i name="e_fr_energy">    -99.57812597 </i>
    <i name="e_wo_entrp">    -99.57812597 </i>
    <i name="e_0_energy">    -99.57812597 </i>
   </energy>
  </scstep>
  <scstep>
   <time name="diag">    0.09    0.09</time>
   <time name="diis">    0.28    0.29</time>
   <time name="orth">    0.00    0.00</time>
   <time name="total">    0.63    0.65</time>
   <energy>
    <i name="e_fr_energy">    -99.57879481 </i>
    <i name="e_wo_entrp">    -99.57879481 </i>
    <i name="e_0_energy">    -99.57879481 </i>
   </energy>
  </scstep>
  <scstep>
   <time name="diag">    0.08    0.08</time>
   <time name="diis">    0.29    0.30</time>
   <time name="orth">    0.01    0.01</time>
   <time name="total">    0.67    0.68</time>
   <energy>
    <i name="e_fr_energy">    -99.57888097 </i>
    <i name="e_wo_entrp">    -99.57888097 </i>
    <i name="e_0_energy">    -99.57888097 </i>
   </energy>
  </scstep>
  <scstep>
   <time name="diag">    0.08    0.08</time>
   <time name="diis">    0.30    0.31</time>
   <time name="orth">    0.00    0.00</time>
   <time name="total">    0.63    0.64</time>
   <energy>
    <i name="e_fr_energy">    -99.57885659 </i>
    <i name="e_wo_entrp">    -99.57885659 </i>
    <i name="e_0_energy">    -99.57885659 </i>
   </energy>
  </scstep>
  <scstep>
   <time name="diag">    0.08    0.08</time>
   <time name="diis">    0.30    0.30</time>
   <time name="orth">    0.00    0.01</time>
   <time name="total">    0.67    0.68</time>
   <energy>
    <i name="e_fr_energy">    -99.57885784 </i>
    <i name="e_wo_entrp">    -99.57885784 </i>
    <i name="e_0_energy">    -99.57885784 </i>
   </energy>
  </scstep>
  <scstep>
   <time name="diag">    0.07    0.07</time>
   <time name="diis">    0.22    0.23</time>
   <time name="orth">    0.00    0.00</time>
   <time name="total">    0.51    0.52</time>
   <energy>
    <i name="alphaZ">      9.74996640 </i>
    <i name="ewald">   1833.66083106 </i>
    <i name="hartreedc">  -3711.16191162 </i>
    <i name="XCdc">    181.35505995 </i>
    <i name="pawpsdc">   4103.88272146 </i>
    <i name="pawaedc">  -4116.10651827 </i>
    <i name="eentropy">     -0.00000000 </i>
    <i name="bandstr">   -610.37147442 </i>
    <i name="atom">   2209.41246822 </i>
    <i name="e_fr_energy">    -99.57885723 </i>
    <i name="e_wo_entrp">    -99.57885723 </i>
    <i name="e_0_energy">    -99.57885723 </i>
   </energy>
  </scstep>
  <structure>
   <crystal>
    <varray name="basis" >
     <v>       7.75330000       0.00000000       0.00000000 </v>
     <v>       0.00000000      11.81980000       0.00000000 </v>
     <v>       0.00000000       0.00000000      11.23080000 </v>
    </varray>
    <i name="volume">   1029.21808743 </i>
    <varray name="rec_basis" >
     <v>       0.12897734       0.00000000       0.00000000 </v>
     <v>       0.00000000       0.08460380       0.00000000 </v>
     <v>       0.00000000       0.00000000       0.08904085 </v>
    </varray>
   </crystal>
   <varray name="positions" >
    <v>       0.49765342       0.71191699       0.54374700 </v>
    <v>       0.49953626       0.58509878       0.54400238 </v>
    <v>       0.50799467       0.52668746       0.43529089 </v>
    <v>       0.50959945       0.40851524       0.43570103 </v>
    <v>       0.50329529       0.34487232       0.53901992 </v>
    <v>       0.49508772       0.40289392       0.64731904 </v>
    <v>       0.49325404       0.52097095       0.64871759 </v>
    <v>       0.51793496       0.35634764       0.32588958 </v>
    <v>       0.61359285       0.74629483       0.50043156 </v>
    <v>       0.38646772       0.74481822       0.49370122 </v>
    <v>       0.49142191       0.74479208       0.63492344 </v>
    <v>       0.51981694       0.53101085       0.26619339 </v>
    <v>       0.50513680       0.25291316       0.53352870 </v>
    <v>       0.48984716       0.35541785       0.73026012 </v>
    <v>       0.48651790       0.56546766       0.73360703 </v>
    <v>       0.51440366       0.58618483       0.33069699 </v>
   </varray>
  </structure>
  <varray name="forces" >
   <v>       0.00024617       0.05576147       0.01103880 </v>
   <v>       0.01198077      -0.05575354      -0.08298199 </v>
   <v>      -0.00116404      -0.03791813      -0.00461028 </v>
   <v>      -0.01435745      -0.02331546      -0.00191037 </v>
   <v>      -0.00626314       0.01985363      -0.02365144 </v>
   <v>       0.01548016      -0.03498388      -0.03086894 </v>
   <v>       0.01042410       0.03301446       0.02968815 </v>
   <v>      -0.02220149      -0.00690092       0.03596967 </v>
   <v>       0.00590549       0.01280747       0.00216076 </v>
   <v>      -0.00089339       0.01119149       0.00219271 </v>
   <v>       0.00038660       0.02414463       0.02734446 </v>
   <v>       0.00398931       0.01290033      -0.07240138 </v>
   <v>      -0.00318036      -0.03074898       0.02699301 </v>
   <v>       0.00088158      -0.01795965       0.06226507 </v>
   <v>       0.00059873       0.02978128       0.05602860 </v>
   <v>      -0.00183304       0.00812577      -0.03725682 </v>
  </varray>
  <varray name="stress" >
   <v>      -0.35180076      -0.01253284      -0.04542447 </v>
   <v>      -0.01253286       0.29380212       0.01762323 </v>
   <v>      -0.04542448       0.01762323       0.29892877 </v>
  </varray>
  <energy>
   <i name="e_fr_energy">    -99.57885723 </i>
   <i name="e_wo_entrp">    -99.57885723 </i>
   <i name="e_0_energy">    -99.57885723 </i>
  </energy>
  <time name="totalsc">    4.91    5.10</time>
 </calculation>
 <calculation>
  <scstep>
   <time name="diag">    0.08    0.08</time>
   <time name="diis">    0.32    0.33</time>
   <time name="orth">    0.00    0.00</time>
   <time name="total">    0.66    0.67</time>
   <energy>
    <i name="alphaZ">      9.74996640 </i>
    <i name="ewald">   1832.27690411 </i>
    <i name="hartreedc">  -3709.95820316 </i>
    <i name="XCdc">    181.34265765 </i>
    <i name="pawpsdc">   4103.42933247 </i>
    <i name="pawaedc">  -4115.65366663 </i>
    <i name="eentropy">     -0.00000000 </i>
    <i name="bandstr">   -610.17838704 </i>
    <i name="atom">   2209.41246822 </i>
    <i name="e_fr_energy">    -99.57892798 </i>
    <i name="e_wo_entrp">    -99.57892798 </i>
    <i name="e_0_energy">    -99.57892798 </i>
   </energy>
  </scstep>
  <scstep>
   <time name="diag">    0.08    0.08</time>
   <time name="diis">    0.30    0.31</time>
   <time name="orth">    0.00    0.00</time>
   <time name="total">    0.62    0.63</time>
   <energy>
    <i name="e_fr_energy">    -99.57897687 </i>
    <i name="e_wo_entrp">    -99.57897687 </i>
    <i name="e_0_energy">    -99.57897687 </i>
   </energy>
  </scstep>
  <scstep>
   <time name="diag">    0.08    0.08</time>
   <time name="diis">    0.32    0.32</time>
   <time name="orth">    0.01    0.01</time>
   <time name="total">    0.64    0.66</time>
   <energy>
    <i name="e_fr_energy">    -99.57898276 </i>
    <i name="e_wo_entrp">    -99.57898276 </i>
    <i name="e_0_energy">    -99.57898276 </i>
   </energy>
  </scstep>
  <scstep>
   <time name="diag">    0.09    0.09</time>
   <time name="diis">    0.22    0.23</time>
   <time name="orth">    0.00    0.00</time>
   <time name="total">    0.60    0.61</time>
   <energy>
    <i name="e_fr_energy">    -99.57898076 </i>
    <i name="e_wo_entrp">    -99.57898076 </i>
    <i name="e_0_energy">    -99.57898076 </i>
   </energy>
  </scstep>
  <scstep>
   <time name="diag">    0.07    0.07</time>
   <time name="diis">    0.20    0.20</time>
   <time name="orth">    0.00    0.00</time>
   <time name="total">    0.55    0.56</time>
   <energy>
    <i name="e_fr_energy">    -99.57898182 </i>
    <i name="e_wo_entrp">    -99.57898182 </i>
    <i name="e_0_energy">    -99.57898182 </i>
   </energy>
  </scstep>
  <scstep>
   <time name="diag">    0.06    0.06</time>
   <time name="diis">    0.17    0.17</time>
   <time name="orth">    0.00    0.00</time>
   <time name="total">    0.43    0.44</time>
   <energy>
    <i name="alphaZ">      9.74996640 </i>
    <i name="ewald">   1832.27690411 </i>
    <i name="hartreedc">  -3709.81272825 </i>
    <i name="XCdc">    181.33762743 </i>
    <i name="pawpsdc">   4099.70687181 </i>
    <i name="pawaedc">  -4111.92968695 </i>
    <i name="eentropy">     -0.00000000 </i>
    <i name="bandstr">   -610.32040550 </i>
    <i name="atom">   2209.41246822 </i>
    <i name="e_fr_energy">    -99.57898273 </i>
    <i name="e_wo_entrp">    -99.57898273 </i>
    <i name="e_0_energy">    -99.57898273 </i>
   </energy>
  </scstep>
  <structure>
   <crystal>
    <varray name="basis" >
     <v>       7.75330000       0.00000000       0.00000000 </v>
     <v>       0.00000000      11.81980000       0.00000000 </v>
     <v>       0.00000000       0.00000000      11.23080000 </v>
    </varray>
    <i name="volume">   1029.21808743 </i>
    <varray name="rec_basis" >
     <v>       0.12897734       0.00000000       0.00000000 </v>
     <v>       0.00000000       0.08460380       0.00000000 </v>
     <v>       0.00000000       0.00000000       0.08904085 </v>
    </varray>
   </crystal>
   <varray name="positions" >
    <v>       0.49765376       0.71198617       0.54375908 </v>
    <v>       0.49953777       0.58514217       0.54403111 </v>
    <v>       0.50800018       0.52667384       0.43521298 </v>
    <v>       0.50959237       0.40849059       0.43564729 </v>
    <v>       0.50328617       0.34485963       0.53899885 </v>
    <v>       0.49509819       0.40290111       0.64738138 </v>
    <v>       0.49326488       0.52097250       0.64877424 </v>
    <v>       0.51791467       0.35632124       0.32586084 </v>
    <v>       0.61361569       0.74629739       0.50042343 </v>
    <v>       0.38645104       0.74481936       0.49369274 </v>
    <v>       0.49142140       0.74479276       0.63494607 </v>
    <v>       0.51982099       0.53101209       0.26614159 </v>
    <v>       0.50513647       0.25282507       0.53354175 </v>
    <v>       0.48984475       0.35539154       0.73032086 </v>
    <v>       0.48651477       0.56549856       0.73366435 </v>
    <v>       0.51440762       0.58621876       0.33063334 </v>
   </varray>
  </structure>
  <varray name="forces" >
   <v>       0.00214096       0.03215273       0.00331847 </v>
   <v>       0.01177651      -0.08930730      -0.11037792 </v>
   <v>      -0.00203322      -0.00560596       0.04177629 </v>
   <v>      -0.01503222      -0.01721140       0.01049710 </v>
   <v>      -0.00614552       0.01170488      -0.00024939 </v>
   <v>       0.01685744      -0.05406806      -0.05846079 </v>
   <v>       0.00622399       0.05615988       0.00846729 </v>
   <v>      -0.02698841      -0.00788304       0.02527704 </v>
   <v>       0.00592763       0.01687638       0.00327189 </v>
   <v>      -0.00072419       0.01536031       0.00304613 </v>
   <v>       0.00060108       0.03069385       0.03022887 </v>
   <v>       0.00414794       0.02016285      -0.07053341 </v>
   <v>      -0.00352431      -0.00154425       0.02720346 </v>
   <v>       0.00185596      -0.01427858       0.05627809 </v>
   <v>       0.00157203       0.02644659       0.05185574 </v>
   <v>       0.00334431      -0.01965887      -0.02159885 </v>
  </varray>
  <varray name="stress" >
   <v>      -0.35562256      -0.00544591      -0.02767907 </v>
   <v>      -0.00544590       0.10778814      -0.00588263 </v>
   <v>      -0.02767908      -0.00588262       0.04310836 </v>
  </varray>
  <energy>
   <i name="e_fr_energy">    -99.57898273 </i>
   <i name="e_wo_entrp">    -99.57898273 </i>
   <i name="e_0_energy">    -99.57898273 </i>
  </energy>
  <time name="totalsc">    4.71    4.87</time>
 </calculation>
 <calculation>
  <scstep>
   <time name="diag">    0.08    0.08</time>
   <time name="diis">    0.30    0.31</time>
   <time name="orth">    0.00    0.00</time>
   <time name="total">    0.64    0.65</time>
   <energy>
    <i name="alphaZ">      9.74996640 </i>
    <i name="ewald">   1830.59684538 </i>
    <i name="hartreedc">  -3708.40076479 </i>
    <i name="XCdc">    181.31652111 </i>
    <i name="pawpsdc">   4099.43321273 </i>
    <i name="pawaedc">  -4111.65627718 </i>
    <i name="eentropy">     -0.00000000 </i>
    <i name="bandstr">   -610.03132937 </i>
    <i name="atom">   2209.41246822 </i>
    <i name="e_fr_energy">    -99.57935750 </i>
    <i name="e_wo_entrp">    -99.57935750 </i>
    <i name="e_0_energy">    -99.57935750 </i>
   </energy>
  </scstep>
  <scstep>
   <time name="diag">    0.09    0.09</time>
   <time name="diis">    0.27    0.28</time>
   <time name="orth">    0.00    0.00</time>
   <time name="total">    0.62    0.63</time>
   <energy>
    <i name="e_fr_energy">    -99.57950459 </i>
    <i name="e_wo_entrp">    -99.57950459 </i>
    <i name="e_0_energy">    -99.57950459 </i>
   </energy>
  </scstep>
  <scstep>
   <time name="diag">    0.07    0.08</time>
   <time name="diis">    0.32    0.33</time>
   <time name="orth">    0.01    0.01</time>
   <time name="total">    0.69    0.70</time>
   <energy>
    <i name="e_fr_energy">    -99.57952433 </i>
    <i name="e_wo_entrp">    -99.57952433 </i>
    <i name="e_0_energy">    -99.57952433 </i>
   </energy>
  </scstep>
  <scstep>
   <time name="diag">    0.07    0.07</time>
   <time name="diis">    0.25    0.26</time>
   <time name="orth">    0.00    0.00</time>
   <time name="total">    0.57    0.59</time>
   <energy>
[...]
        <r>  0.0043  0.0000  0.0000  0.0000  0.0000  0.0000  0.0000  0.0000  0.0000 </r>
        <r>  0.0000  0.0000  0.0000  0.0000  0.0000  0.0000  0.0000  0.0000  0.0000 </r>
        <r>  0.0000  0.0000  0.0000  0.0031  0.0000  0.0000  0.0000  0.0000  0.0000 </r>
        <r>  0.0000  0.0000  0.0000  0.0002  0.0000  0.0000  0.0000  0.0000  0.0000 </r>
        <r>  0.0000  0.0000  0.0000  0.0018  0.0000  0.0000  0.0000  0.0000  0.0000 </r>
        <r>  0.0000  0.0000  0.0000  0.0003  0.0000  0.0000  0.0000  0.0000  0.0000 </r>
        <r>  0.0000  0.0000  0.0004  0.1628  0.0000  0.0000  0.0000  0.0000  0.0000 </r>
       </set>
       <set comment="band 25">
        <r>  0.0000  0.0000  0.0000  0.0001  0.0000  0.0000  0.0000  0.0000  0.0000 </r>
        <r>  0.0000  0.0000  0.0003  0.1501  0.0000  0.0000  0.0000  0.0000  0.0000 </r>
        <r>  0.0000  0.0000  0.0000  0.0249  0.0000  0.0000  0.0000  0.0000  0.0000 </r>
        <r>  0.0000  0.0000  0.0001  0.0645  0.0000  0.0000  0.0000  0.0000  0.0000 </r>
        <r>  0.0000  0.0000  0.0003  0.1363  0.0000  0.0000  0.0000  0.0000  0.0000 </r>
        <r>  0.0000  0.0000  0.0001  0.0249  0.0000  0.0000  0.0000  0.0000  0.0000 </r>
        <r>  0.0000  0.0000  0.0001  0.0391  0.0000  0.0000  0.0000  0.0000  0.0000 </r>
        <r>  0.0000  0.0000  0.0000  0.0099  0.0000  0.0000  0.0000  0.0000  0.0000 </r>
        <r>  0.0092  0.0002  0.0000  0.0000  0.0000  0.0000  0.0000  0.0000  0.0000 </r>
        <r>  0.0094  0.0002  0.0000  0.0000  0.0000  0.0000  0.0000  0.0000  0.0000 </r>
        <r>  0.0000  0.0000  0.0000  0.0000  0.0000  0.0000  0.0000  0.0000  0.0000 </r>
        <r>  0.0000  0.0000  0.0000  0.0001  0.0000  0.0000  0.0000  0.0000  0.0000 </r>
        <r>  0.0000  0.0000  0.0000  0.0049  0.0000  0.0000  0.0000  0.0000  0.0000 </r>
        <r>  0.0000  0.0000  0.0000  0.0008  0.0000  0.0000  0.0000  0.0000  0.0000 </r>
        <r>  0.0000  0.0000  0.0000  0.0013  0.0000  0.0000  0.0000  0.0000  0.0000 </r>
        <r>  0.0000  0.0000  0.0000  0.0090  0.0000  0.0000  0.0000  0.0000  0.0000 </r>
       </set>
       <set comment="band 26">
        <r>  0.0096  0.0006  0.0001  0.0000  0.0000  0.0000  0.0000  0.0000  0.0000 </r>
        <r>  0.0001  0.0004  0.0001  0.0000  0.0000  0.0000  0.0000  0.0000  0.0000 </r>
        <r>  0.0000  0.0026  0.0045  0.0000  0.0000  0.0000  0.0000  0.0000  0.0000 </r>
        <r>  0.0003  0.0021  0.0062  0.0000  0.0000  0.0000  0.0000  0.0000  0.0000 </r>
        <r>  0.0016  0.0006  0.0001  0.0000  0.0000  0.0000  0.0000  0.0000  0.0000 </r>
        <r>  0.0000  0.0002  0.0025  0.0000  0.0000  0.0000  0.0000  0.0000  0.0000 </r>
        <r>  0.0007  0.0002  0.0026  0.0000  0.0000  0.0000  0.0000  0.0000  0.0000 </r>
        <r>  0.0067  0.0031  0.0005  0.0000  0.0000  0.0000  0.0000  0.0000  0.0000 </r>
        <r>  0.0000  0.0000  0.0002  0.0007  0.0000  0.0000  0.0000  0.0000  0.0000 </r>
        <r>  0.0000  0.0000  0.0003  0.0006  0.0000  0.0000  0.0000  0.0000  0.0000 </r>
        <r>  0.0001  0.0001  0.0007  0.0000  0.0000  0.0000  0.0000  0.0000  0.0000 </r>
        <r>  0.0029  0.0020  0.0037  0.0000  0.0000  0.0000  0.0000  0.0000  0.0000 </r>
        <r>  0.0011  0.0003  0.0000  0.0000  0.0000  0.0000  0.0000  0.0000  0.0000 </r>
        <r>  0.0002  0.0001  0.0002  0.0000  0.0000  0.0000  0.0000  0.0000  0.0000 </r>
        <r>  0.0005  0.0003  0.0003  0.0000  0.0000  0.0000  0.0000  0.0000  0.0000 </r>
        <r>  0.0127  0.0063  0.0021  0.0000  0.0000  0.0000  0.0000  0.0000  0.0000 </r>
       </set>
       <set comment="band 27">
        <r>  0.0000  0.0000  0.0000  0.0001  0.0000  0.0000  0.0000  0.0000  0.0000 </r>
        <r>  0.0000  0.0000  0.0000  0.0001  0.0000  0.0000  0.0000  0.0000  0.0000 </r>
        <r>  0.0000  0.0000  0.0003  0.1243  0.0000  0.0000  0.0000  0.0000  0.0000 </r>
        <r>  0.0000  0.0000  0.0002  0.0845  0.0000  0.0000  0.0000  0.0000  0.0000 </r>
        <r>  0.0000  0.0000  0.0000  0.0043  0.0000  0.0000  0.0000  0.0000  0.0000 </r>
        <r>  0.0000  0.0000  0.0003  0.1241  0.0000  0.0000  0.0000  0.0000  0.0000 </r>
        <r>  0.0000  0.0000  0.0002  0.1052  0.0000  0.0000  0.0000  0.0000  0.0000 </r>
        <r>  0.0000  0.0000  0.0000  0.0162  0.0000  0.0000  0.0000  0.0000  0.0000 </r>
        <r>  0.0001  0.0000  0.0000  0.0000  0.0000  0.0000  0.0000  0.0000  0.0000 </r>
        <r>  0.0001  0.0000  0.0000  0.0000  0.0000  0.0000  0.0000  0.0000  0.0000 </r>
        <r>  0.0000  0.0000  0.0000  0.0001  0.0000  0.0000  0.0000  0.0000  0.0000 </r>
        <r>  0.0000  0.0000  0.0000  0.0011  0.0000  0.0000  0.0000  0.0000  0.0000 </r>
        <r>  0.0000  0.0000  0.0000  0.0001  0.0000  0.0000  0.0000  0.0000  0.0000 </r>
        <r>  0.0000  0.0000  0.0000  0.0042  0.0000  0.0000  0.0000  0.0000  0.0000 </r>
        <r>  0.0000  0.0000  0.0000  0.0037  0.0000  0.0000  0.0000  0.0000  0.0000 </r>
        <r>  0.0000  0.0000  0.0001  0.0336  0.0000  0.0000  0.0000  0.0000  0.0000 </r>
       </set>
       <set comment="band 28">
        <r>  0.0002  0.0068  0.0018  0.0000  0.0000  0.0000  0.0000  0.0000  0.0000 </r>
        <r>  0.0000  0.0002  0.0001  0.0000  0.0000  0.0000  0.0000  0.0000  0.0000 </r>
        <r>  0.0022  0.0034  0.0026  0.0000  0.0000  0.0000  0.0000  0.0000  0.0000 </r>
        <r>  0.0025  0.0059  0.0148  0.0000  0.0000  0.0000  0.0000  0.0000  0.0000 </r>
        <r>  0.0018  0.0062  0.0002  0.0000  0.0000  0.0000  0.0000  0.0000  0.0000 </r>
        <r>  0.0065  0.0037  0.0018  0.0000  0.0000  0.0000  0.0000  0.0000  0.0000 </r>
        <r>  0.0039  0.0017  0.0008  0.0000  0.0000  0.0000  0.0000  0.0000  0.0000 </r>
        <r>  0.0090  0.0088  0.0058  0.0000  0.0000  0.0000  0.0000  0.0000  0.0000 </r>
        <r>  0.0000  0.0000  0.0000  0.0001  0.0000  0.0000  0.0000  0.0000  0.0000 </r>
        <r>  0.0000  0.0000  0.0000  0.0001  0.0000  0.0000  0.0000  0.0000  0.0000 </r>
        <r>  0.0010  0.0000  0.0008  0.0000  0.0000  0.0000  0.0000  0.0000  0.0000 </r>
        <r>  0.0036  0.0020  0.0049  0.0000  0.0000  0.0000  0.0000  0.0000  0.0000 </r>
        <r>  0.0035  0.0017  0.0001  0.0000  0.0000  0.0000  0.0000  0.0000  0.0000 </r>
        <r>  0.0007  0.0005  0.0016  0.0000  0.0000  0.0000  0.0000  0.0000  0.0000 </r>
        <r>  0.0005  0.0001  0.0009  0.0000  0.0000  0.0000  0.0000  0.0000  0.0000 </r>
        <r>  0.0131  0.0159  0.0003  0.0000  0.0000  0.0000  0.0000  0.0000  0.0000 </r>
       </set>
       <set comment="band 29">
        <r>  0.0192  0.0015  0.0014  0.0000  0.0000  0.0000  0.0000  0.0000  0.0000 </r>
        <r>  0.0004  0.0014  0.0000  0.0000  0.0000  0.0000  0.0000  0.0000  0.0000 </r>
        <r>  0.0002  0.0000  0.0001  0.0000  0.0000  0.0000  0.0000  0.0000  0.0000 </r>
        <r>  0.0001  0.0004  0.0000  0.0000  0.0000  0.0000  0.0000  0.0000  0.0000 </r>
        <r>  0.0001  0.0002  0.0002  0.0000  0.0000  0.0000  0.0000  0.0000  0.0000 </r>
        <r>  0.0062  0.0013  0.0059  0.0000  0.0000  0.0000  0.0000  0.0000  0.0000 </r>
        <r>  0.0001  0.0003  0.0035  0.0000  0.0000  0.0000  0.0000  0.0000  0.0000 </r>
        <r>  0.0001  0.0000  0.0027  0.0000  0.0000  0.0000  0.0000  0.0000  0.0000 </r>
        <r>  0.0001  0.0004  0.0002  0.0020  0.0000  0.0000  0.0000  0.0000  0.0000 </r>
        <r>  0.0001  0.0003  0.0003  0.0019  0.0000  0.0000  0.0000  0.0000  0.0000 </r>
        <r>  0.0001  0.0001  0.0007  0.0000  0.0000  0.0000  0.0000  0.0000  0.0000 </r>
        <r>  0.0002  0.0004  0.0006  0.0000  0.0000  0.0000  0.0000  0.0000  0.0000 </r>
        <r>  0.0005  0.0000  0.0000  0.0000  0.0000  0.0000  0.0000  0.0000  0.0000 </r>
        <r>  0.0001  0.0006  0.0022  0.0000  0.0000  0.0000  0.0000  0.0000  0.0000 </r>
        <r>  0.0007  0.0000  0.0007  0.0000  0.0000  0.0000  0.0000  0.0000  0.0000 </r>
        <r>  0.0001  0.0012  0.0046  0.0000  0.0000  0.0000  0.0000  0.0000  0.0000 </r>
       </set>
       <set comment="band 30">
        <r>  0.0018  0.0023  0.0021  0.0000  0.0000  0.0000  0.0000  0.0000  0.0000 </r>
        <r>  0.0001  0.0005  0.0005  0.0000  0.0000  0.0000  0.0000  0.0000  0.0000 </r>
        <r>  0.0000  0.0021  0.0004  0.0000  0.0000  0.0000  0.0000  0.0000  0.0000 </r>
        <r>  0.0006  0.0004  0.0006  0.0000  0.0000  0.0000  0.0000  0.0000  0.0000 </r>
        <r>  0.0054  0.0079  0.0006  0.0000  0.0000  0.0000  0.0000  0.0000  0.0000 </r>
        <r>  0.0000  0.0002  0.0007  0.0000  0.0000  0.0000  0.0000  0.0000  0.0000 </r>
        <r>  0.0041  0.0027  0.0074  0.0000  0.0000  0.0000  0.0000  0.0000  0.0000 </r>
        <r>  0.0028  0.0004  0.0003  0.0000  0.0000  0.0000  0.0000  0.0000  0.0000 </r>
        <r>  0.0003  0.0001  0.0001  0.0002  0.0000  0.0000  0.0000  0.0000  0.0000 </r>
        <r>  0.0003  0.0001  0.0001  0.0001  0.0000  0.0000  0.0000  0.0000  0.0000 </r>
        <r>  0.0000  0.0000  0.0014  0.0000  0.0000  0.0000  0.0000  0.0000  0.0000 </r>
        <r>  0.0001  0.0000  0.0000  0.0000  0.0000  0.0000  0.0000  0.0000  0.0000 </r>
        <r>  0.0011  0.0029  0.0000  0.0000  0.0000  0.0000  0.0000  0.0000  0.0000 </r>
        <r>  0.0002  0.0002  0.0000  0.0000  0.0000  0.0000  0.0000  0.0000  0.0000 </r>
        <r>  0.0003  0.0007  0.0023  0.0000  0.0000  0.0000  0.0000  0.0000  0.0000 </r>
        <r>  0.0000  0.0006  0.0002  0.0000  0.0000  0.0000  0.0000  0.0000  0.0000 </r>
       </set>
       <set comment="band 31">
        <r>  0.0000  0.0003  0.0007  0.0000  0.0000  0.0000  0.0000  0.0000  0.0000 </r>
        <r>  0.0016  0.0003  0.0001  0.0000  0.0000  0.0000  0.0000  0.0000  0.0000 </r>
        <r>  0.0012  0.0000  0.0001  0.0000  0.0000  0.0000  0.0000  0.0000  0.0000 </r>
        <r>  0.0010  0.0002  0.0003  0.0000  0.0000  0.0000  0.0000  0.0000  0.0000 </r>
        <r>  0.0005  0.0005  0.0000  0.0000  0.0000  0.0000  0.0000  0.0000  0.0000 </r>
        <r>  0.0021  0.0000  0.0000  0.0000  0.0000  0.0000  0.0000  0.0000  0.0000 </r>
        <r>  0.0016  0.0001  0.0001  0.0000  0.0000  0.0000  0.0000  0.0000  0.0000 </r>
        <r>  0.0000  0.0000  0.0006  0.0000  0.0000  0.0000  0.0000  0.0000  0.0000 </r>
        <r>  0.0004  0.0001  0.0001  0.0001  0.0000  0.0000  0.0000  0.0000  0.0000 </r>
        <r>  0.0003  0.0001  0.0001  0.0001  0.0000  0.0000  0.0000  0.0000  0.0000 </r>
        <r>  0.0001  0.0001  0.0001  0.0000  0.0000  0.0000  0.0000  0.0000  0.0000 </r>
        <r>  0.0012  0.0004  0.0009  0.0000  0.0000  0.0000  0.0000  0.0000  0.0000 </r>
        <r>  0.0006  0.0000  0.0000  0.0000  0.0000  0.0000  0.0000  0.0000  0.0000 </r>
        <r>  0.0007  0.0000  0.0001  0.0000  0.0000  0.0000  0.0000  0.0000  0.0000 </r>
        <r>  0.0003  0.0000  0.0000  0.0000  0.0000  0.0000  0.0000  0.0000  0.0000 </r>
        <r>  0.0012  0.0002  0.0026  0.0000  0.0000  0.0000  0.0000  0.0000  0.0000 </r>
       </set>
       <set comment="band 32">
        <r>  0.0008  0.0007  0.0254  0.0000  0.0000  0.0000  0.0000  0.0000  0.0000 </r>
        <r>  0.0012  0.0000  0.0015  0.0000  0.0000  0.0000  0.0000  0.0000  0.0000 </r>
        <r>  0.0004  0.0007  0.0020  0.0000  0.0000  0.0000  0.0000  0.0000  0.0000 </r>
        <r>  0.0094  0.0045  0.0235  0.0000  0.0000  0.0000  0.0000  0.0000  0.0000 </r>
        <r>  0.0007  0.0018  0.0000  0.0000  0.0000  0.0000  0.0000  0.0000  0.0000 </r>
        <r>  0.0051  0.0018  0.0001  0.0000  0.0000  0.0000  0.0000  0.0000  0.0000 </r>
        <r>  0.0002  0.0000  0.0032  0.0000  0.0000  0.0000  0.0000  0.0000  0.0000 </r>
        <r>  0.0102  0.0042  0.0184  0.0001  0.0000  0.0000  0.0000  0.0000  0.0000 </r>
        <r>  0.0001  0.0001  0.0000  0.0007  0.0000  0.0000  0.0000  0.0000  0.0000 </r>
        <r>  0.0000  0.0001  0.0000  0.0009  0.0000  0.0000  0.0000  0.0000  0.0000 </r>
        <r>  0.0001  0.0015  0.0027  0.0000  0.0000  0.0000  0.0000  0.0000  0.0000 </r>
        <r>  0.0001  0.0000  0.0000  0.0000  0.0000  0.0000  0.0000  0.0000  0.0000 </r>
        <r>  0.0040  0.0001  0.0001  0.0000  0.0000  0.0000  0.0000  0.0000  0.0000 </r>
        <r>  0.0005  0.0000  0.0011  0.0000  0.0000  0.0000  0.0000  0.0000  0.0000 </r>
        <r>  0.0001  0.0005  0.0000  0.0000  0.0000  0.0000  0.0000  0.0000  0.0000 </r>
        <r>  0.0000  0.0071  0.0033  0.0000  0.0000  0.0000  0.0000  0.0000  0.0000 </r>
       </set>
       <set comment="band 33">
        <r>  0.0019  0.0002  0.0001  0.0000  0.0000  0.0000  0.0000  0.0000  0.0000 </r>
        <r>  0.0006  0.0019  0.0002  0.0000  0.0000  0.0000  0.0000  0.0000  0.0000 </r>
        <r>  0.0002  0.0014  0.0015  0.0000  0.0000  0.0000  0.0000  0.0000  0.0000 </r>
        <r>  0.0001  0.0002  0.0019  0.0000  0.0000  0.0000  0.0000  0.0000  0.0000 </r>
        <r>  0.0009  0.0038  0.0001  0.0000  0.0000  0.0000  0.0000  0.0000  0.0000 </r>
        <r>  0.0012  0.0013  0.0011  0.0000  0.0000  0.0000  0.0000  0.0000  0.0000 </r>
        <r>  0.0022  0.0002  0.0000  0.0000  0.0000  0.0000  0.0000  0.0000  0.0000 </r>
        <r>  0.0002  0.0042  0.0018  0.0000  0.0000  0.0000  0.0000  0.0000  0.0000 </r>
        <r>  0.0001  0.0000  0.0001  0.0001  0.0000  0.0000  0.0000  0.0000  0.0000 </r>
        <r>  0.0001  0.0000  0.0000  0.0000  0.0000  0.0000  0.0000  0.0000  0.0000 </r>
        <r>  0.0001  0.0002  0.0001  0.0000  0.0000  0.0000  0.0000  0.0000  0.0000 </r>
        <r>  0.0078  0.0024  0.0054  0.0000  0.0000  0.0000  0.0000  0.0000  0.0000 </r>
        <r>  0.0004  0.0011  0.0002  0.0000  0.0000  0.0000  0.0000  0.0000  0.0000 </r>
        <r>  0.0002  0.0006  0.0003  0.0000  0.0000  0.0000  0.0000  0.0000  0.0000 </r>
        <r>  0.0000  0.0000  0.0004  0.0000  0.0000  0.0000  0.0000  0.0000  0.0000 </r>
        <r>  0.0098  0.0060  0.0063  0.0001  0.0000  0.0000  0.0000  0.0000  0.0000 </r>
       </set>
       <set comment="band 34">
        <r>  0.0003  0.0011  0.0014  0.0000  0.0000  0.0000  0.0000  0.0000  0.0000 </r>
        <r>  0.0000  0.0004  0.0003  0.0000  0.0000  0.0000  0.0000  0.0000  0.0000 </r>
        <r>  0.0013  0.0002  0.0005  0.0000  0.0000  0.0000  0.0000  0.0000  0.0000 </r>
        <r>  0.0008  0.0013  0.0019  0.0000  0.0000  0.0000  0.0000  0.0000  0.0000 </r>
        <r>  0.0070  0.0080  0.0000  0.0000  0.0000  0.0000  0.0000  0.0000  0.0000 </r>
        <r>  0.0012  0.0001  0.0000  0.0000  0.0000  0.0000  0.0000  0.0000  0.0000 </r>
        <r>  0.0085  0.0001  0.0072  0.0000  0.0000  0.0000  0.0000  0.0000  0.0000 </r>
        <r>  0.0000  0.0033  0.0019  0.0000  0.0000  0.0000  0.0000  0.0000  0.0000 </r>
        <r>  0.0000  0.0000  0.0000  0.0001  0.0000  0.0000  0.0000  0.0000  0.0000 </r>
        <r>  0.0000  0.0000  0.0000  0.0001  0.0000  0.0000  0.0000  0.0000  0.0000 </r>
        <r>  0.0000  0.0000  0.0003  0.0000  0.0000  0.0000  0.0000  0.0000  0.0000 </r>
        <r>  0.0000  0.0001  0.0000  0.0000  0.0000  0.0000  0.0000  0.0000  0.0000 </r>
        <r>  0.0020  0.0035  0.0004  0.0000  0.0000  0.0000  0.0000  0.0000  0.0000 </r>
        <r>  0.0019  0.0003  0.0001  0.0000  0.0000  0.0000  0.0000  0.0000  0.0000 </r>
        <r>  0.0013  0.0010  0.0025  0.0000  0.0000  0.0000  0.0000  0.0000  0.0000 </r>
        <r>  0.0006  0.0003  0.0038  0.0000  0.0000  0.0000  0.0000  0.0000  0.0000 </r>
       </set>
       <set comment="band 35">
        <r>  0.0056  0.0014  0.0005  0.0081  0.0000  0.0000  0.0000  0.0000  0.0000 </r>
        <r>  0.0006  0.0001  0.0000  0.0013  0.0000  0.0000  0.0000  0.0000  0.0000 </r>
        <r>  0.0000  0.0001  0.0000  0.0013  0.0000  0.0000  0.0000  0.0000  0.0000 </r>
        <r>  0.0006  0.0000  0.0023  0.0063  0.0000  0.0000  0.0000  0.0000  0.0000 </r>
        <r>  0.0016  0.0007  0.0002  0.0000  0.0000  0.0000  0.0000  0.0000  0.0000 </r>
        <r>  0.0000  0.0003  0.0017  0.0052  0.0000  0.0000  0.0000  0.0000  0.0000 </r>
        <r>  0.0003  0.0006  0.0003  0.0001  0.0000  0.0000  0.0000  0.0000  0.0000 </r>
        <r>  0.0012  0.0002  0.0000  0.0003  0.0000  0.0000  0.0000  0.0000  0.0000 </r>
        <r>  0.0002  0.0000  0.0001  0.0001  0.0000  0.0000  0.0000  0.0000  0.0000 </r>
        <r>  0.0000  0.0006  0.0005  0.0023  0.0000  0.0000  0.0000  0.0000  0.0000 </r>
        <r>  0.0001  0.0000  0.0003  0.0000  0.0000  0.0000  0.0000  0.0000  0.0000 </r>
        <r>  0.0000  0.0000  0.0000  0.0000  0.0000  0.0000  0.0000  0.0000  0.0000 </r>
        <r>  0.0001  0.0004  0.0000  0.0003  0.0000  0.0000  0.0000  0.0000  0.0000 </r>
        <r>  0.0000  0.0000  0.0005  0.0000  0.0000  0.0000  0.0000  0.0000  0.0000 </r>
        <r>  0.0000  0.0000  0.0002  0.0002  0.0000  0.0000  0.0000  0.0000  0.0000 </r>
        <r>  0.0003  0.0009  0.0001  0.0043  0.0000  0.0000  0.0000  0.0000  0.0000 </r>
       </set>
       <set comment="band 36">
        <r>  0.0025  0.0029  0.0024  0.0123  0.0000  0.0000  0.0000  0.0000  0.0000 </r>
        <r>  0.0023  0.0006  0.0006  0.0004  0.0000  0.0000  0.0000  0.0000  0.0000 </r>
        <r>  0.0009  0.0001  0.0009  0.0005  0.0000  0.0000  0.0000  0.0000  0.0000 </r>
        <r>  0.0001  0.0003  0.0011  0.0033  0.0000  0.0000  0.0000  0.0000  0.0000 </r>
        <r>  0.0009  0.0006  0.0001  0.0014  0.0000  0.0000  0.0000  0.0000  0.0000 </r>
        <r>  0.0011  0.0021  0.0070  0.0006  0.0000  0.0000  0.0000  0.0000  0.0000 </r>
        <r>  0.0006  0.0014  0.0059  0.0057  0.0000  0.0000  0.0000  0.0000  0.0000 </r>
        <r>  0.0006  0.0000  0.0002  0.0001  0.0000  0.0000  0.0000  0.0000  0.0000 </r>
        <r>  0.0015  0.0000  0.0024  0.0012  0.0000  0.0000  0.0000  0.0000  0.0000 </r>
        <r>  0.0008  0.0012  0.0000  0.0001  0.0000  0.0000  0.0000  0.0000  0.0000 </r>
        <r>  0.0031  0.0000  0.0020  0.0007  0.0000  0.0000  0.0000  0.0000  0.0000 </r>
        <r>  0.0001  0.0000  0.0001  0.0000  0.0000  0.0000  0.0000  0.0000  0.0000 </r>
        <r>  0.0005  0.0003  0.0000  0.0001  0.0000  0.0000  0.0000  0.0000  0.0000 </r>
        <r>  0.0029  0.0011  0.0013  0.0003  0.0000  0.0000  0.0000  0.0000  0.0000 </r>
        <r>  0.0018  0.0011  0.0008  0.0000  0.0000  0.0000  0.0000  0.0000  0.0000 </r>
        <r>  0.0015  0.0005  0.0009  0.0023  0.0000  0.0000  0.0000  0.0000  0.0000 </r>
       </set>
      </set>
     </set>
    </set>
   </array>
  </projected>
 </calculation>
 <structure name="finalpos" >
  <crystal>
   <varray name="basis" >
    <v>       7.75330000       0.00000000       0.00000000 </v>
    <v>       0.00000000      11.81980000       0.00000000 </v>
    <v>       0.00000000       0.00000000      11.23080000 </v>
   </varray>
   <i name="volume">   1029.21808743 </i>
   <varray name="rec_basis" >
    <v>       0.12897734       0.00000000       0.00000000 </v>
    <v>       0.00000000       0.08460380       0.00000000 </v>
    <v>       0.00000000       0.00000000       0.08904085 </v>
   </varray>
  </crystal>
  <varray name="positions" >
   <v>       0.49766628       0.71212418       0.54377802 </v>
   <v>       0.49959992       0.58501825       0.54382026 </v>
   <v>       0.50800930       0.52658262       0.43511421 </v>
   <v>       0.50948169       0.40842251       0.43560562 </v>
   <v>       0.50323632       0.34477409       0.53896001 </v>
   <v>       0.49519871       0.40281373       0.64738694 </v>
   <v>       0.49332285       0.52106937       0.64882015 </v>
   <v>       0.51772901       0.35623285       0.32589303 </v>
   <v>       0.61369220       0.74638399       0.50042909 </v>
   <v>       0.38641505       0.74489715       0.49369551 </v>
   <v>       0.49142581       0.74490983       0.63510168 </v>
   <v>       0.51985112       0.53111248       0.26577645 </v>
   <v>       0.50510968       0.25273353       0.53368261 </v>
   <v>       0.48986206       0.35532152       0.73057843 </v>
   <v>       0.48652469       0.56564964       0.73394693 </v>
   <v>       0.51443606       0.58615703       0.33044093 </v>
  </varray>
 </structure>
</modeling>
