  16  16   1   0
  0.6443466E+02  0.7756100E-09  0.1183610E-08  0.1123020E-08  0.1000000E-14
   500.000000000000     
  CAR 
 Cluster                                 
      4.02364606    -30.74989412  301     -4.69156582      1.00000000
    -30.750  0.0000E+00  0.0000E+00
    -30.634  0.0000E+00  0.0000E+00
    -30.518  0.0000E+00  0.0000E+00
    -30.402  0.0000E+00  0.0000E+00
    -30.286  0.0000E+00  0.0000E+00
    -30.170  0.0000E+00  0.0000E+00
    -30.054 -0.4839E-33 -0.5625E-34
    -29.939 -0.1073E-24 -0.1251E-25
    -29.823 -0.1746E-17 -0.2046E-18
    -29.707 -0.1967E-11 -0.2316E-12
    -29.591 -0.1519E-06 -0.1797E-07
    -29.475 -0.7049E-03 -0.8374E-04
    -29.359 -0.1555E+00 -0.1861E-01
    -29.243  0.5110E+00  0.4222E-01
    -29.127  0.1358E+02  0.1663E+01
    -29.011  0.3188E+01  0.2044E+01
    -28.895 -0.3615E+00  0.2001E+01
    -28.779 -0.4227E-02  0.2000E+01
    -28.663 -0.2020E-05  0.2000E+01
    -28.548 -0.5558E-10  0.2000E+01
    -28.432  0.0000E+00  0.2000E+01
    -28.316  0.0000E+00  0.2000E+01
    -28.200  0.0000E+00  0.2000E+01
    -28.084  0.0000E+00  0.2000E+01
    -27.968  0.0000E+00  0.2000E+01
    -27.852  0.0000E+00  0.2000E+01
    -27.736  0.0000E+00  0.2000E+01
    -27.620  0.0000E+00  0.2000E+01
    -27.504 -0.3228E-33  0.2000E+01
    -27.388 -0.4244E-25  0.2000E+01
    -27.273 -0.3726E-18  0.2000E+01
    -27.157 -0.2101E-12  0.2000E+01
    -27.041 -0.7965E-08  0.2000E+01
    -26.925 -0.1927E-04  0.2000E+01
    -26.809 -0.2600E-02  0.2000E+01
    -26.693  0.5460E-02  0.2000E+01
    -26.577  0.1991E+00  0.2023E+01
    -26.461  0.2911E+00  0.2057E+01
    -26.345  0.5335E+00  0.2120E+01
    -26.229  0.6755E+00  0.2200E+01
    -26.113  0.5957E+00  0.2271E+01
    -25.998  0.6963E+00  0.2353E+01
    -25.882  0.7171E+00  0.2437E+01
    -25.766  0.9791E+00  0.2553E+01
    -25.650  0.9550E+00  0.2665E+01
    -25.534  0.1090E+01  0.2795E+01
    -25.418  0.1614E+01  0.2987E+01
    -25.302  0.1576E+01  0.3176E+01
    -25.186  0.1423E+01  0.3346E+01
    -25.070  0.8165E+00  0.3444E+01
    -24.954  0.1063E+01  0.3572E+01
    -24.838  0.7713E+00  0.3665E+01
    -24.722  0.7292E+00  0.3753E+01
    -24.607  0.8586E+00  0.3857E+01
    -24.491  0.4833E+00  0.3916E+01
    -24.375  0.2146E+00  0.3942E+01
    -24.259  0.3697E+00  0.3987E+01
    -24.143  0.1168E+00  0.4001E+01
    -24.027 -0.1030E-01  0.4000E+01
    -23.911 -0.2663E-03  0.4000E+01
    -23.795 -0.2239E-06  0.4000E+01
    -23.679 -0.8966E-11  0.4000E+01
    -23.563 -0.1220E-16  0.4000E+01
    -23.447  0.0000E+00  0.4000E+01
    -23.332  0.0000E+00  0.4000E+01
    -23.216  0.0000E+00  0.4000E+01
    -23.100  0.0000E+00  0.4000E+01
    -22.984  0.0000E+00  0.4000E+01
    -22.868  0.0000E+00  0.4000E+01
    -22.752  0.0000E+00  0.4000E+01
    -22.636  0.0000E+00  0.4000E+01
    -22.520  0.0000E+00  0.4000E+01
    -22.404  0.0000E+00  0.4000E+01
    -22.288  0.0000E+00  0.4000E+01
    -22.172  0.0000E+00  0.4000E+01
    -22.057 -0.2042E-29  0.4000E+01
    -21.941 -0.1582E-21  0.4000E+01
    -21.825 -0.5980E-15  0.4000E+01
    -21.709 -0.1131E-09  0.4000E+01
    -21.593 -0.1005E-05  0.4000E+01
    -21.477 -0.3629E-03  0.4000E+01
    -21.361 -0.6872E-03  0.4000E+01
    -21.245  0.4307E-01  0.4005E+01
    -21.129  0.1223E+00  0.4020E+01
    -21.013  0.1299E+00  0.4035E+01
    -20.897  0.1548E+00  0.4053E+01
    -20.781  0.5028E+00  0.4111E+01
    -20.666  0.1018E+01  0.4230E+01
    -20.550  0.1453E+01  0.4402E+01
    -20.434  0.1995E+01  0.4640E+01
    -20.318  0.2015E+01  0.4880E+01
    -20.202  0.2710E+01  0.5203E+01
    -20.086  0.2244E+01  0.5471E+01
    -19.970  0.1174E+01  0.5612E+01
    -19.854  0.1044E+01  0.5739E+01
    -19.738  0.8648E+00  0.5843E+01
    -19.622  0.5222E+00  0.5907E+01
    -19.506  0.3357E+00  0.5947E+01
    -19.391  0.1072E+00  0.5960E+01
    -19.275  0.9046E-01  0.5971E+01
    -19.159  0.2044E+00  0.5996E+01
    -19.043  0.1113E+00  0.6010E+01
    -18.927  0.7623E-01  0.6019E+01
    -18.811  0.3989E+00  0.6065E+01
    -18.695  0.3298E+00  0.6103E+01
    -18.579  0.6604E+00  0.6181E+01
    -18.463  0.1313E+01  0.6336E+01
    -18.347  0.2017E+01  0.6576E+01
    -18.231  0.3078E+01  0.6941E+01
    -18.116  0.2254E+01  0.7210E+01
    -18.000  0.2121E+01  0.7464E+01
    -17.884  0.1884E+01  0.7691E+01
    -17.768  0.1538E+01  0.7876E+01
    -17.652  0.1416E+01  0.8045E+01
    -17.536  0.1574E+01  0.8232E+01
    -17.420  0.2747E+01  0.8558E+01
    -17.304  0.3138E+01  0.8932E+01
    -17.188  0.2885E+01  0.9276E+01
    -17.072  0.2043E+01  0.9520E+01
    -16.956  0.1292E+01  0.9675E+01
    -16.840  0.1207E+01  0.9821E+01
    -16.725  0.1068E+01  0.9948E+01
    -16.609  0.9311E+00  0.1006E+02
    -16.493  0.8527E+00  0.1016E+02
    -16.377  0.1493E+01  0.1034E+02
    -16.261  0.2540E+01  0.1064E+02
    -16.145  0.2495E+01  0.1094E+02
    -16.029  0.2396E+01  0.1122E+02
    -15.913  0.2644E+01  0.1154E+02
    -15.797  0.1881E+01  0.1177E+02
    -15.681  0.9688E+00  0.1188E+02
    -15.565  0.4922E+00  0.1194E+02
    -15.450  0.2578E+00  0.1197E+02
    -15.334  0.2386E+00  0.1200E+02
    -15.218  0.8599E-01  0.1201E+02
    -15.102  0.4524E-01  0.1202E+02
    -14.986  0.2635E+00  0.1205E+02
    -14.870  0.4426E+00  0.1210E+02
    -14.754  0.1002E+01  0.1222E+02
    -14.638  0.2132E+01  0.1247E+02
    -14.522  0.2214E+01  0.1274E+02
    -14.406  0.2265E+01  0.1300E+02
    -14.290  0.2457E+01  0.1330E+02
    -14.175  0.3193E+01  0.1368E+02
    -14.059  0.4368E+01  0.1420E+02
    -13.943  0.3788E+01  0.1465E+02
    -13.827  0.2691E+01  0.1498E+02
    -13.711  0.3072E+01  0.1534E+02
    -13.595  0.3444E+01  0.1576E+02
    -13.479  0.1661E+01  0.1595E+02
    -13.363  0.1052E+01  0.1608E+02
    -13.247  0.1349E+01  0.1624E+02
    -13.131  0.1895E+01  0.1647E+02
    -13.015  0.2804E+01  0.1680E+02
    -12.899  0.3168E+01  0.1718E+02
    -12.784  0.2977E+01  0.1753E+02
    -12.668  0.2506E+01  0.1783E+02
    -12.552  0.1044E+01  0.1796E+02
    -12.436  0.4582E+00  0.1801E+02
    -12.320  0.6105E+00  0.1809E+02
    -12.204  0.2052E+01  0.1833E+02
    -12.088  0.2901E+01  0.1868E+02
    -11.972  0.3144E+01  0.1905E+02
    -11.856  0.3620E+01  0.1949E+02
    -11.740  0.2685E+01  0.1981E+02
    -11.624  0.1061E+01  0.1993E+02
    -11.509  0.8564E+00  0.2003E+02
    -11.393  0.9981E+00  0.2015E+02
    -11.277  0.1732E+01  0.2036E+02
    -11.161  0.3114E+01  0.2073E+02
    -11.045  0.4549E+01  0.2127E+02
    -10.929  0.3664E+01  0.2171E+02
    -10.813  0.2777E+01  0.2204E+02
    -10.697  0.3294E+01  0.2244E+02
    -10.581  0.4590E+01  0.2299E+02
    -10.465  0.5970E+01  0.2370E+02
    -10.349  0.6674E+01  0.2450E+02
    -10.234  0.6044E+01  0.2521E+02
    -10.118  0.3905E+01  0.2568E+02
    -10.002  0.2138E+01  0.2593E+02
     -9.886  0.1991E+01  0.2617E+02
     -9.770  0.2840E+01  0.2651E+02
     -9.654  0.4562E+01  0.2705E+02
     -9.538  0.5457E+01  0.2771E+02
     -9.422  0.5857E+01  0.2840E+02
     -9.306  0.7535E+01  0.2930E+02
     -9.190  0.8133E+01  0.3027E+02
     -9.074  0.8967E+01  0.3134E+02
     -8.958  0.9234E+01  0.3245E+02
     -8.843  0.9553E+01  0.3359E+02
     -8.727  0.9097E+01  0.3467E+02
     -8.611  0.6999E+01  0.3551E+02
     -8.495  0.6320E+01  0.3626E+02
     -8.379  0.4669E+01  0.3682E+02
     -8.263  0.4038E+01  0.3730E+02
     -8.147  0.4520E+01  0.3784E+02
     -8.031  0.5284E+01  0.3847E+02
     -7.915  0.3356E+01  0.3887E+02
     -7.799  0.3919E+01  0.3934E+02
     -7.683  0.4856E+01  0.3992E+02
     -7.568  0.6097E+01  0.4064E+02
     -7.452  0.6038E+01  0.4136E+02
     -7.336  0.4862E+01  0.4194E+02
     -7.220  0.5186E+01  0.4256E+02
     -7.104  0.3421E+01  0.4297E+02
     -6.988  0.3203E+01  0.4335E+02
     -6.872  0.2892E+01  0.4370E+02
     -6.756  0.1461E+01  0.4387E+02
     -6.640  0.6156E+00  0.4395E+02
     -6.524  0.2815E+00  0.4398E+02
     -6.408  0.1885E+00  0.4400E+02
     -6.293  0.5325E-01  0.4401E+02
     -6.177  0.1937E-01  0.4401E+02
     -6.061  0.1809E-01  0.4402E+02
     -5.945  0.1045E+00  0.4403E+02
     -5.829  0.5534E-01  0.4403E+02
     -5.713  0.3333E+00  0.4407E+02
     -5.597  0.1096E+01  0.4420E+02
     -5.481  0.2149E+01  0.4446E+02
     -5.365  0.3377E+01  0.4486E+02
     -5.249  0.3132E+01  0.4524E+02
     -5.133  0.3327E+01  0.4564E+02
     -5.017  0.3776E+01  0.4609E+02
     -4.902  0.4178E+01  0.4659E+02
     -4.786  0.3489E+01  0.4700E+02
     -4.670  0.3225E+01  0.4738E+02
     -4.554  0.2577E+01  0.4769E+02
     -4.438  0.1563E+01  0.4788E+02
     -4.322  0.7608E+00  0.4797E+02
     -4.206  0.2176E+00  0.4800E+02
     -4.090  0.3920E-01  0.4800E+02
     -3.974 -0.4740E-02  0.4800E+02
     -3.858 -0.1477E-03  0.4800E+02
     -3.742 -0.1653E-06  0.4800E+02
     -3.627 -0.9633E-11  0.4800E+02
     -3.511 -0.3750E-16  0.4800E+02
     -3.395  0.0000E+00  0.4800E+02
     -3.279  0.0000E+00  0.4800E+02
     -3.163  0.0000E+00  0.4800E+02
     -3.047  0.0000E+00  0.4800E+02
     -2.931  0.0000E+00  0.4800E+02
     -2.815 -0.1027E-32  0.4800E+02
     -2.699 -0.2440E-24  0.4800E+02
     -2.583 -0.2927E-17  0.4800E+02
     -2.467 -0.1680E-11  0.4800E+02
     -2.352 -0.4747E-07  0.4800E+02
     -2.236 -0.5871E-04  0.4800E+02
     -2.120 -0.1841E-02  0.4800E+02
     -2.004  0.2529E-01  0.4800E+02
     -1.888  0.3134E-01  0.4801E+02
     -1.772  0.2874E-01  0.4801E+02
     -1.656  0.2178E-01  0.4801E+02
     -1.540  0.1141E+00  0.4803E+02
     -1.424  0.1551E+00  0.4805E+02
     -1.308  0.6298E+00  0.4812E+02
     -1.192  0.1317E+01  0.4828E+02
     -1.076  0.1862E+01  0.4850E+02
     -0.961  0.3359E+01  0.4890E+02
     -0.845  0.4849E+01  0.4949E+02
     -0.729  0.5228E+01  0.5011E+02
     -0.613  0.5462E+01  0.5076E+02
     -0.497  0.7179E+01  0.5162E+02
     -0.381  0.6854E+01  0.5244E+02
     -0.265  0.5843E+01  0.5314E+02
     -0.149  0.4817E+01  0.5371E+02
     -0.033  0.4012E+01  0.5419E+02
      0.083  0.3650E+01  0.5462E+02
      0.199  0.4250E+01  0.5513E+02
      0.314  0.5722E+01  0.5582E+02
      0.430  0.6761E+01  0.5662E+02
      0.546  0.7408E+01  0.5751E+02
      0.662  0.6965E+01  0.5834E+02
      0.778  0.6739E+01  0.5914E+02
      0.894  0.6326E+01  0.5990E+02
      1.010  0.5311E+01  0.6053E+02
      1.126  0.5235E+01  0.6115E+02
      1.242  0.5115E+01  0.6176E+02
      1.358  0.4893E+01  0.6235E+02
      1.474  0.6458E+01  0.6312E+02
      1.589  0.7106E+01  0.6397E+02
      1.705  0.7749E+01  0.6490E+02
      1.821  0.8914E+01  0.6596E+02
      1.937  0.8910E+01  0.6702E+02
      2.053  0.7588E+01  0.6793E+02
      2.169  0.7532E+01  0.6882E+02
      2.285  0.5773E+01  0.6951E+02
      2.401  0.6397E+01  0.7027E+02
      2.517  0.1425E+02  0.7197E+02
      2.633  0.4530E+00  0.7202E+02
      2.749 -0.1593E+00  0.7200E+02
      2.865 -0.7150E-03  0.7200E+02
      2.980 -0.1536E-06  0.7200E+02
      3.096 -0.1985E-11  0.7200E+02
      3.212  0.0000E+00  0.7200E+02
      3.328  0.0000E+00  0.7200E+02
      3.444  0.0000E+00  0.7200E+02
      3.560  0.0000E+00  0.7200E+02
      3.676  0.0000E+00  0.7200E+02
      3.792  0.0000E+00  0.7200E+02
      3.908  0.0000E+00  0.7200E+02
      4.024  0.0000E+00  0.7200E+02
      4.00130523    -30.75925170  301     -4.72083262      1.00000000
    -30.759  0.0000E+00  0.0000E+00
    -30.643  0.0000E+00  0.0000E+00
    -30.528  0.0000E+00  0.0000E+00
    -30.412  0.0000E+00  0.0000E+00
    -30.296  0.0000E+00  0.0000E+00
    -30.180  0.0000E+00  0.0000E+00
    -30.064 -0.1434E-34 -0.1661E-35
    -29.948 -0.2614E-26 -0.3029E-27
    -29.832 -0.3178E-19 -0.3683E-20
    -29.716 -0.2466E-13 -0.2857E-14
    -29.601 -0.1260E-08 -0.1461E-09
    -29.485 -0.3943E-05 -0.4570E-06
    -29.369 -0.6303E-03 -0.7349E-04
    -29.253  0.2232E-02  0.1851E-03
    -29.137  0.4581E-01  0.5493E-02
    -29.021  0.1151E-01  0.6827E-02
    -28.905 -0.1359E-02  0.6669E-02
    -28.789 -0.2147E-04  0.6667E-02
    -28.674 -0.1498E-07  0.6667E-02
    -28.558 -0.6235E-12  0.6667E-02
    -28.442  0.0000E+00  0.6667E-02
    -28.326  0.0000E+00  0.6667E-02
    -28.210  0.0000E+00  0.6667E-02
    -28.094  0.0000E+00  0.6667E-02
    -27.978  0.0000E+00  0.6667E-02
    -27.863  0.0000E+00  0.6667E-02
    -27.747  0.0000E+00  0.6667E-02
    -27.631  0.0000E+00  0.6667E-02
    -27.515  0.0000E+00  0.6667E-02
    -27.399  0.0000E+00  0.6667E-02
    -27.283  0.0000E+00  0.6667E-02
    -27.167 -0.5893E-35  0.6667E-02
    -27.051 -0.1209E-26  0.6667E-02
    -26.936 -0.1654E-19  0.6667E-02
    -26.820 -0.1445E-13  0.6667E-02
    -26.704 -0.8330E-09  0.6667E-02
    -26.588 -0.2949E-05  0.6666E-02
    -26.472 -0.5418E-03  0.6604E-02
    -26.356  0.1301E-02  0.6754E-02
    -26.240  0.4477E-01  0.1194E-01
    -26.125  0.1353E-01  0.1351E-01
    -26.009 -0.1486E-02  0.1334E-01
    -25.893 -0.2756E-04  0.1333E-01
    -25.777 -0.2182E-07  0.1333E-01
    -25.661 -0.1024E-11  0.1333E-01
    -25.545  0.0000E+00  0.1333E-01
    -25.429  0.0000E+00  0.1333E-01
    -25.313  0.0000E+00  0.1333E-01
    -25.198  0.0000E+00  0.1333E-01
    -25.082  0.0000E+00  0.1333E-01
    -24.966  0.0000E+00  0.1333E-01
    -24.850  0.0000E+00  0.1333E-01
    -24.734  0.0000E+00  0.1333E-01
    -24.618  0.0000E+00  0.1333E-01
    -24.502  0.0000E+00  0.1333E-01
    -24.386  0.0000E+00  0.1333E-01
    -24.271  0.0000E+00  0.1333E-01
    -24.155  0.0000E+00  0.1333E-01
    -24.039  0.0000E+00  0.1333E-01
    -23.923  0.0000E+00  0.1333E-01
    -23.807  0.0000E+00  0.1333E-01
    -23.691  0.0000E+00  0.1333E-01
    -23.575  0.0000E+00  0.1333E-01
    -23.460  0.0000E+00  0.1333E-01
    -23.344  0.0000E+00  0.1333E-01
    -23.228  0.0000E+00  0.1333E-01
    -23.112  0.0000E+00  0.1333E-01
    -22.996  0.0000E+00  0.1333E-01
    -22.880  0.0000E+00  0.1333E-01
    -22.764  0.0000E+00  0.1333E-01
    -22.648  0.0000E+00  0.1333E-01
    -22.533  0.0000E+00  0.1333E-01
    -22.417  0.0000E+00  0.1333E-01
    -22.301  0.0000E+00  0.1333E-01
    -22.185  0.0000E+00  0.1333E-01
    -22.069 -0.8641E-32  0.1333E-01
    -21.953 -0.6610E-24  0.1333E-01
    -21.837 -0.3363E-17  0.1333E-01
    -21.722 -0.1082E-11  0.1333E-01
    -21.606 -0.2273E-07  0.1333E-01
    -21.490 -0.2832E-04  0.1333E-01
    -21.374 -0.1500E-02  0.1316E-01
    -21.258  0.1375E-01  0.1475E-01
    -21.142  0.4464E-01  0.1992E-01
    -21.026  0.1207E-02  0.2006E-01
    -20.910 -0.5326E-03  0.2000E-01
    -20.795 -0.2855E-05  0.2000E-01
    -20.679 -0.7956E-09  0.2000E-01
    -20.563 -0.1362E-13  0.2000E-01
    -20.447  0.0000E+00  0.2000E-01
    -20.331  0.0000E+00  0.2000E-01
    -20.215  0.0000E+00  0.2000E-01
    -20.099  0.0000E+00  0.2000E-01
    -19.983  0.0000E+00  0.2000E-01
    -19.868  0.0000E+00  0.2000E-01
    -19.752  0.0000E+00  0.2000E-01
    -19.636 -0.6438E-32  0.2000E-01
    -19.520 -0.5131E-24  0.2000E-01
    -19.404 -0.2719E-17  0.2000E-01
    -19.288 -0.9116E-12  0.2000E-01
    -19.172 -0.1998E-07  0.2000E-01
    -19.057 -0.2599E-04  0.2000E-01
    -18.941 -0.1457E-02  0.1983E-01
    -18.825  0.1304E-01  0.2134E-01
    -18.709  0.4504E-01  0.2656E-01
    -18.593  0.1508E-02  0.2673E-01
    -18.477 -0.5619E-03  0.2667E-01
    -18.361 -0.3159E-05  0.2667E-01
    -18.245 -0.9190E-09  0.2667E-01
    -18.130 -0.1050E-08  0.2667E-01
    -18.014 -0.3470E-05  0.2667E-01
    -17.898 -0.5901E-03  0.2660E-01
    -17.782  0.1803E-02  0.2681E-01
    -17.666  0.4538E-01  0.3206E-01
    -17.550  0.1239E-01  0.3350E-01
    -17.434 -0.1416E-02  0.3334E-01
    -17.319 -0.2399E-04  0.3333E-01
    -17.203 -0.1770E-07  0.3333E-01
    -17.087 -0.4017E-09  0.3333E-01
    -16.971 -0.1757E-05  0.3333E-01
    -16.855 -0.4098E-03  0.3329E-01
    -16.739  0.1598E-04  0.3329E-01
    -16.623  0.4237E-01  0.3820E-01
    -16.507  0.1730E-01  0.4020E-01
    -16.392 -0.1692E-02  0.4000E-01
    -16.276 -0.4193E-04  0.4000E-01
    -16.160 -0.4135E-07  0.4000E-01
    -16.044 -0.2395E-11  0.4000E-01
    -15.928 -0.1278E-16  0.4000E-01
    -15.812  0.0000E+00  0.4000E-01
    -15.696  0.0000E+00  0.4000E-01
    -15.580 -0.1559E-29  0.4000E-01
    -15.465 -0.5720E-22  0.4000E-01
    -15.349 -0.1360E-15  0.4000E-01
    -15.233 -0.2121E-10  0.4000E-01
    -15.117 -0.2092E-06  0.4000E-01
    -15.001 -0.1174E-03  0.3999E-01
    -14.885 -0.1920E-02  0.3976E-01
    -14.769  0.2834E-01  0.4305E-01
    -14.654  0.3314E-01  0.4689E-01
    -14.538 -0.1760E-02  0.4668E-01
    -14.422 -0.1825E-02  0.4647E-01
    -14.306  0.1642E-01  0.4837E-01
    -14.190  0.4297E-01  0.5335E-01
    -14.074  0.2721E-03  0.5338E-01
    -13.958 -0.4373E-03  0.5333E-01
    -13.842 -0.1979E-05  0.5333E-01
    -13.727 -0.5191E-09  0.5333E-01
    -13.611 -0.3649E-06  0.5333E-01
    -13.495 -0.1649E-03  0.5331E-01
    -13.379 -0.1776E-02  0.5311E-01
    -13.263  0.3232E-01  0.5685E-01
    -13.147  0.2919E-01  0.6024E-01
    -13.031 -0.1903E-02  0.6001E-01
    -12.915 -0.1264E-03  0.6000E-01
    -12.800 -0.2357E-06  0.6000E-01
    -12.684 -0.2713E-10  0.6000E-01
    -12.568 -0.3853E-07  0.6000E-01
    -12.452 -0.4005E-04  0.6000E-01
    -12.336 -0.1671E-02  0.5980E-01
    -12.220  0.1686E-01  0.6176E-01
    -12.104  0.4267E-01  0.6670E-01
    -11.989  0.1398E-03  0.6672E-01
    -11.873 -0.4232E-03  0.6667E-01
    -11.757 -0.1864E-05  0.6667E-01
    -11.641 -0.1328E-05  0.6667E-01
    -11.525 -0.3505E-03  0.6663E-01
    -11.409 -0.5091E-03  0.6657E-01
    -11.293  0.4082E-01  0.7130E-01
    -11.177  0.1941E-01  0.7355E-01
    -11.062 -0.1785E-02  0.7334E-01
    -10.946 -0.1734E-03  0.7332E-01
    -10.830 -0.1914E-02  0.7310E-01
    -10.714  0.2873E-01  0.7643E-01
    -10.598  0.3276E-01  0.8022E-01
    -10.482 -0.2110E-02  0.7998E-01
    -10.366 -0.5753E-03  0.7991E-01
    -10.251  0.4117E-01  0.8468E-01
    -10.135  0.1893E-01  0.8687E-01
    -10.019 -0.3056E-02  0.8652E-01
     -9.903  0.1045E-01  0.8773E-01
     -9.787  0.4625E-01  0.9309E-01
     -9.671  0.2676E-02  0.9340E-01
     -9.555 -0.2612E-02  0.9310E-01
     -9.439  0.2728E-01  0.9626E-01
     -9.324  0.3274E-01  0.1001E+00
     -9.208  0.3625E-01  0.1043E+00
     -9.092  0.5709E-01  0.1109E+00
     -8.976  0.2323E-01  0.1136E+00
     -8.860 -0.3880E-02  0.1131E+00
     -8.744  0.2899E-01  0.1165E+00
     -8.628  0.4304E-01  0.1215E+00
     -8.512  0.4368E-01  0.1265E+00
     -8.397 -0.1598E-04  0.1265E+00
     -8.281  0.2129E-01  0.1290E+00
     -8.165  0.3885E-01  0.1335E+00
     -8.049 -0.9883E-03  0.1334E+00
     -7.933 -0.2914E-03  0.1333E+00
     -7.817 -0.8753E-05  0.1333E+00
     -7.701 -0.8816E-03  0.1332E+00
     -7.586  0.5107E-02  0.1338E+00
     -7.470  0.4701E-01  0.1393E+00
     -7.354  0.5401E-02  0.1399E+00
     -7.238  0.3060E-01  0.1434E+00
     -7.122  0.2987E-01  0.1469E+00
     -7.006 -0.1885E-02  0.1467E+00
     -6.890 -0.1340E-03  0.1467E+00
     -6.774 -0.2593E-06  0.1467E+00
     -6.659 -0.2842E-10  0.1467E+00
     -6.543 -0.1916E-15  0.1467E+00
     -6.427 -0.1276E-31  0.1467E+00
     -6.311 -0.9250E-24  0.1467E+00
     -6.195 -0.4457E-17  0.1467E+00
     -6.079 -0.1357E-11  0.1467E+00
     -5.963 -0.2697E-07  0.1467E+00
     -5.848 -0.3170E-04  0.1467E+00
     -5.732 -0.1557E-02  0.1465E+00
     -5.616  0.1473E-01  0.1482E+00
     -5.500  0.4406E-01  0.1533E+00
     -5.384  0.8340E-03  0.1534E+00
     -5.268 -0.4954E-03  0.1533E+00
     -5.152 -0.2792E-05  0.1533E+00
     -5.036 -0.1464E-03  0.1533E+00
     -4.921 -0.1847E-02  0.1531E+00
     -4.805  0.3092E-01  0.1567E+00
     -4.689  0.3062E-01  0.1602E+00
     -4.573 -0.1859E-02  0.1600E+00
     -4.457 -0.1427E-03  0.1600E+00
     -4.341 -0.2875E-06  0.1600E+00
     -4.225 -0.3271E-10  0.1600E+00
     -4.109 -0.2300E-15  0.1600E+00
     -3.994  0.0000E+00  0.1600E+00
     -3.878  0.0000E+00  0.1600E+00
     -3.762  0.0000E+00  0.1600E+00
     -3.646  0.0000E+00  0.1600E+00
     -3.530  0.0000E+00  0.1600E+00
     -3.414  0.0000E+00  0.1600E+00
     -3.298  0.0000E+00  0.1600E+00
     -3.183  0.0000E+00  0.1600E+00
     -3.067  0.0000E+00  0.1600E+00
     -2.951  0.0000E+00  0.1600E+00
     -2.835  0.0000E+00  0.1600E+00
     -2.719  0.0000E+00  0.1600E+00
     -2.603  0.0000E+00  0.1600E+00
     -2.487  0.0000E+00  0.1600E+00
     -2.371  0.0000E+00  0.1600E+00
     -2.256  0.0000E+00  0.1600E+00
     -2.140  0.0000E+00  0.1600E+00
     -2.024  0.0000E+00  0.1600E+00
     -1.908 -0.3263E-36  0.1600E+00
     -1.792 -0.9772E-28  0.1600E+00
     -1.676 -0.1953E-20  0.1600E+00
     -1.560 -0.2502E-14  0.1600E+00
     -1.445 -0.2122E-09  0.1600E+00
     -1.329 -0.1116E-05  0.1600E+00
     -1.213 -0.3177E-03  0.1600E+00
     -1.097 -0.7810E-03  0.1599E+00
     -0.981  0.3979E-01  0.1645E+00
     -0.865  0.2074E-01  0.1669E+00
     -0.749 -0.1834E-02  0.1667E+00
     -0.633 -0.1934E-03  0.1667E+00
     -0.518 -0.1901E-02  0.1664E+00
     -0.402  0.2866E-01  0.1698E+00
     -0.286  0.4136E-01  0.1745E+00
     -0.170  0.4473E-01  0.1797E+00
     -0.054  0.3095E-02  0.1801E+00
      0.062 -0.7230E-03  0.1800E+00
      0.178 -0.1332E-04  0.1800E+00
      0.294 -0.9004E-03  0.1799E+00
      0.409  0.5334E-02  0.1805E+00
      0.525  0.4683E-01  0.1859E+00
      0.641  0.6460E-02  0.1867E+00
      0.757  0.3838E-01  0.1911E+00
      0.873  0.4844E-01  0.1967E+00
      0.989  0.3008E-01  0.2002E+00
      1.105 -0.1852E-02  0.2000E+00
      1.220 -0.2111E-03  0.2000E+00
      1.336 -0.1984E-02  0.1998E+00
      1.452  0.1784E-01  0.2018E+00
      1.568  0.7499E-01  0.2105E+00
      1.684  0.2485E-01  0.2134E+00
      1.800  0.3201E-01  0.2171E+00
      1.916  0.2560E-01  0.2201E+00
      2.032  0.6535E-02  0.2208E+00
      2.147  0.7311E-01  0.2293E+00
      2.263  0.3592E-01  0.2335E+00
      2.379  0.9212E-02  0.2345E+00
      2.495  0.4560E-01  0.2398E+00
      2.611  0.2231E-02  0.2401E+00
      2.727 -0.6303E-03  0.2400E+00
      2.843 -0.3943E-05  0.2400E+00
      2.958 -0.1260E-08  0.2400E+00
      3.074 -0.2466E-13  0.2400E+00
      3.190  0.0000E+00  0.2400E+00
      3.306  0.0000E+00  0.2400E+00
      3.422  0.0000E+00  0.2400E+00
      3.538  0.0000E+00  0.2400E+00
      3.654  0.0000E+00  0.2400E+00
      3.770  0.0000E+00  0.2400E+00
      3.885  0.0000E+00  0.2400E+00
      4.001  0.0000E+00  0.2400E+00
      4.00130523    -30.75925170  301     -4.72083262      1.00000000
    -30.759  0.0000E+00  0.0000E+00  0.0000E+00  0.0000E+00  0.0000E+00  0.0000E+00  0.0000E+00  0.0000E+00  0.0000E+00
    -30.643  0.0000E+00  0.0000E+00  0.0000E+00  0.0000E+00  0.0000E+00  0.0000E+00  0.0000E+00  0.0000E+00  0.0000E+00
    -30.528  0.0000E+00  0.0000E+00  0.0000E+00  0.0000E+00  0.0000E+00  0.0000E+00  0.0000E+00  0.0000E+00  0.0000E+00
    -30.412  0.0000E+00  0.0000E+00  0.0000E+00  0.0000E+00  0.0000E+00  0.0000E+00  0.0000E+00  0.0000E+00  0.0000E+00
    -30.296  0.0000E+00  0.0000E+00  0.0000E+00  0.0000E+00  0.0000E+00  0.0000E+00  0.0000E+00  0.0000E+00  0.0000E+00
    -30.180  0.0000E+00  0.0000E+00  0.0000E+00  0.0000E+00  0.0000E+00  0.0000E+00  0.0000E+00  0.0000E+00  0.0000E+00
    -30.064 -0.9647E-37 -0.3361E-37 -0.1064E-37 -0.2161E-38  0.0000E+00  0.0000E+00  0.0000E+00  0.0000E+00  0.0000E+00
    -29.948 -0.1759E-28 -0.6130E-29 -0.1941E-29 -0.3940E-30  0.0000E+00  0.0000E+00  0.0000E+00  0.0000E+00  0.0000E+00
    -29.832 -0.2139E-21 -0.7452E-22 -0.2359E-22 -0.4790E-23  0.0000E+00  0.0000E+00  0.0000E+00  0.0000E+00  0.0000E+00
    -29.716 -0.1659E-15 -0.5782E-16 -0.1831E-16 -0.3717E-17  0.0000E+00  0.0000E+00  0.0000E+00  0.0000E+00  0.0000E+00
    -29.601 -0.8482E-11 -0.2955E-11 -0.9357E-12 -0.1900E-12  0.0000E+00  0.0000E+00  0.0000E+00  0.0000E+00  0.0000E+00
    -29.485 -0.2653E-07 -0.9245E-08 -0.2927E-08 -0.5943E-09  0.0000E+00  0.0000E+00  0.0000E+00  0.0000E+00  0.0000E+00
    -29.369 -0.4241E-05 -0.1478E-05 -0.4678E-06 -0.9499E-07  0.0000E+00  0.0000E+00  0.0000E+00  0.0000E+00  0.0000E+00
    -29.253  0.1502E-04  0.5232E-05  0.1656E-05  0.3363E-06  0.0000E+00  0.0000E+00  0.0000E+00  0.0000E+00  0.0000E+00
    -29.137  0.3082E-03  0.1074E-03  0.3400E-04  0.6904E-05  0.0000E+00  0.0000E+00  0.0000E+00  0.0000E+00  0.0000E+00
    -29.021  0.7747E-04  0.2699E-04  0.8546E-05  0.1735E-05  0.0000E+00  0.0000E+00  0.0000E+00  0.0000E+00  0.0000E+00
    -28.905 -0.9144E-05 -0.3186E-05 -0.1009E-05 -0.2048E-06  0.0000E+00  0.0000E+00  0.0000E+00  0.0000E+00  0.0000E+00
    -28.789 -0.1444E-06 -0.5033E-07 -0.1593E-07 -0.3235E-08  0.0000E+00  0.0000E+00  0.0000E+00  0.0000E+00  0.0000E+00
    -28.674 -0.1008E-09 -0.3513E-10 -0.1112E-10 -0.2258E-11  0.0000E+00  0.0000E+00  0.0000E+00  0.0000E+00  0.0000E+00
    -28.558 -0.4196E-14 -0.1462E-14 -0.4629E-15 -0.9397E-16  0.0000E+00  0.0000E+00  0.0000E+00  0.0000E+00  0.0000E+00
    -28.442  0.0000E+00  0.0000E+00  0.0000E+00  0.0000E+00  0.0000E+00  0.0000E+00  0.0000E+00  0.0000E+00  0.0000E+00
    -28.326  0.0000E+00  0.0000E+00  0.0000E+00  0.0000E+00  0.0000E+00  0.0000E+00  0.0000E+00  0.0000E+00  0.0000E+00
    -28.210  0.0000E+00  0.0000E+00  0.0000E+00  0.0000E+00  0.0000E+00  0.0000E+00  0.0000E+00  0.0000E+00  0.0000E+00
    -28.094  0.0000E+00  0.0000E+00  0.0000E+00  0.0000E+00  0.0000E+00  0.0000E+00  0.0000E+00  0.0000E+00  0.0000E+00
    -27.978  0.0000E+00  0.0000E+00  0.0000E+00  0.0000E+00  0.0000E+00  0.0000E+00  0.0000E+00  0.0000E+00  0.0000E+00
    -27.863  0.0000E+00  0.0000E+00  0.0000E+00  0.0000E+00  0.0000E+00  0.0000E+00  0.0000E+00  0.0000E+00  0.0000E+00
    -27.747  0.0000E+00  0.0000E+00  0.0000E+00  0.0000E+00  0.0000E+00  0.0000E+00  0.0000E+00  0.0000E+00  0.0000E+00
    -27.631  0.0000E+00  0.0000E+00  0.0000E+00  0.0000E+00  0.0000E+00  0.0000E+00  0.0000E+00  0.0000E+00  0.0000E+00
    -27.515  0.0000E+00  0.0000E+00  0.0000E+00  0.0000E+00  0.0000E+00  0.0000E+00  0.0000E+00  0.0000E+00  0.0000E+00
    -27.399  0.0000E+00  0.0000E+00  0.0000E+00  0.0000E+00  0.0000E+00  0.0000E+00  0.0000E+00  0.0000E+00  0.0000E+00
    -27.283  0.0000E+00  0.0000E+00  0.0000E+00  0.0000E+00  0.0000E+00  0.0000E+00  0.0000E+00  0.0000E+00  0.0000E+00
    -27.167 -0.2597E-40 -0.1024E-41 -0.1250E-39 -0.3571E-41  0.0000E+00  0.0000E+00  0.0000E+00  0.0000E+00  0.0000E+00
    -27.051 -0.5328E-32 -0.2100E-33 -0.2564E-31 -0.7326E-33  0.0000E+00  0.0000E+00  0.0000E+00  0.0000E+00  0.0000E+00
    -26.936 -0.7288E-25 -0.2873E-26 -0.3508E-24 -0.1002E-25  0.0000E+00  0.0000E+00  0.0000E+00  0.0000E+00  0.0000E+00
    -26.820 -0.6369E-19 -0.2510E-20 -0.3065E-18 -0.8758E-20  0.0000E+00  0.0000E+00  0.0000E+00  0.0000E+00  0.0000E+00
    -26.704 -0.3671E-14 -0.1447E-15 -0.1767E-13 -0.5048E-15  0.0000E+00  0.0000E+00  0.0000E+00  0.0000E+00  0.0000E+00
    -26.588 -0.1299E-10 -0.5122E-12 -0.6254E-10 -0.1787E-11  0.0000E+00  0.0000E+00  0.0000E+00  0.0000E+00  0.0000E+00
    -26.472 -0.2388E-08 -0.9411E-10 -0.1149E-07 -0.3283E-09  0.0000E+00  0.0000E+00  0.0000E+00  0.0000E+00  0.0000E+00
    -26.356  0.5735E-08  0.2261E-09  0.2760E-07  0.7886E-09  0.0000E+00  0.0000E+00  0.0000E+00  0.0000E+00  0.0000E+00
    -26.240  0.1973E-06  0.7776E-08  0.9496E-06  0.2713E-07  0.0000E+00  0.0000E+00  0.0000E+00  0.0000E+00  0.0000E+00
    -26.125  0.5960E-07  0.2349E-08  0.2869E-06  0.8196E-08  0.0000E+00  0.0000E+00  0.0000E+00  0.0000E+00  0.0000E+00
    -26.009 -0.6551E-08 -0.2582E-09 -0.3153E-07 -0.9008E-09  0.0000E+00  0.0000E+00  0.0000E+00  0.0000E+00  0.0000E+00
    -25.893 -0.1214E-09 -0.4787E-11 -0.5845E-09 -0.1670E-10  0.0000E+00  0.0000E+00  0.0000E+00  0.0000E+00  0.0000E+00
    -25.777 -0.9615E-13 -0.3790E-14 -0.4627E-12 -0.1322E-13  0.0000E+00  0.0000E+00  0.0000E+00  0.0000E+00  0.0000E+00
    -25.661 -0.4515E-17 -0.1779E-18 -0.2173E-16 -0.6208E-18  0.0000E+00  0.0000E+00  0.0000E+00  0.0000E+00  0.0000E+00
    -25.545  0.0000E+00  0.0000E+00  0.0000E+00  0.0000E+00  0.0000E+00  0.0000E+00  0.0000E+00  0.0000E+00  0.0000E+00
    -25.429  0.0000E+00  0.0000E+00  0.0000E+00  0.0000E+00  0.0000E+00  0.0000E+00  0.0000E+00  0.0000E+00  0.0000E+00
    -25.313  0.0000E+00  0.0000E+00  0.0000E+00  0.0000E+00  0.0000E+00  0.0000E+00  0.0000E+00  0.0000E+00  0.0000E+00
    -25.198  0.0000E+00  0.0000E+00  0.0000E+00  0.0000E+00  0.0000E+00  0.0000E+00  0.0000E+00  0.0000E+00  0.0000E+00
    -25.082  0.0000E+00  0.0000E+00  0.0000E+00  0.0000E+00  0.0000E+00  0.0000E+00  0.0000E+00  0.0000E+00  0.0000E+00
    -24.966  0.0000E+00  0.0000E+00  0.0000E+00  0.0000E+00  0.0000E+00  0.0000E+00  0.0000E+00  0.0000E+00  0.0000E+00
    -24.850  0.0000E+00  0.0000E+00  0.0000E+00  0.0000E+00  0.0000E+00  0.0000E+00  0.0000E+00  0.0000E+00  0.0000E+00
    -24.734  0.0000E+00  0.0000E+00  0.0000E+00  0.0000E+00  0.0000E+00  0.0000E+00  0.0000E+00  0.0000E+00  0.0000E+00
    -24.618  0.0000E+00  0.0000E+00  0.0000E+00  0.0000E+00  0.0000E+00  0.0000E+00  0.0000E+00  0.0000E+00  0.0000E+00
    -24.502  0.0000E+00  0.0000E+00  0.0000E+00  0.0000E+00  0.0000E+00  0.0000E+00  0.0000E+00  0.0000E+00  0.0000E+00
    -24.386  0.0000E+00  0.0000E+00  0.0000E+00  0.0000E+00  0.0000E+00  0.0000E+00  0.0000E+00  0.0000E+00  0.0000E+00
    -24.271  0.0000E+00  0.0000E+00  0.0000E+00  0.0000E+00  0.0000E+00  0.0000E+00  0.0000E+00  0.0000E+00  0.0000E+00
    -24.155  0.0000E+00  0.0000E+00  0.0000E+00  0.0000E+00  0.0000E+00  0.0000E+00  0.0000E+00  0.0000E+00  0.0000E+00
    -24.039  0.0000E+00  0.0000E+00  0.0000E+00  0.0000E+00  0.0000E+00  0.0000E+00  0.0000E+00  0.0000E+00  0.0000E+00
    -23.923  0.0000E+00  0.0000E+00  0.0000E+00  0.0000E+00  0.0000E+00  0.0000E+00  0.0000E+00  0.0000E+00  0.0000E+00
    -23.807  0.0000E+00  0.0000E+00  0.0000E+00  0.0000E+00  0.0000E+00  0.0000E+00  0.0000E+00  0.0000E+00  0.0000E+00
    -23.691  0.0000E+00  0.0000E+00  0.0000E+00  0.0000E+00  0.0000E+00  0.0000E+00  0.0000E+00  0.0000E+00  0.0000E+00
    -23.575  0.0000E+00  0.0000E+00  0.0000E+00  0.0000E+00  0.0000E+00  0.0000E+00  0.0000E+00  0.0000E+00  0.0000E+00
    -23.460  0.0000E+00  0.0000E+00  0.0000E+00  0.0000E+00  0.0000E+00  0.0000E+00  0.0000E+00  0.0000E+00  0.0000E+00
    -23.344  0.0000E+00  0.0000E+00  0.0000E+00  0.0000E+00  0.0000E+00  0.0000E+00  0.0000E+00  0.0000E+00  0.0000E+00
    -23.228  0.0000E+00  0.0000E+00  0.0000E+00  0.0000E+00  0.0000E+00  0.0000E+00  0.0000E+00  0.0000E+00  0.0000E+00