   16   16  300    1
  0.6443466E+02  0.7756100E-09  0.1183610E-08  0.1123020E-08  0.1000000E-14
   500.000000000000     
  CAR 
 Cluster                                 
     48      1     36
 
  0.0000000E+00  0.0000000E+00  0.0000000E+00  0.1000000E+01
      1        -29.179226   1.000000
      2        -26.277472   1.000000
      3        -21.221497   1.000000
      4        -18.786512   1.000000
      5        -17.706015   1.000000
      6        -16.651635   1.000000
      7        -14.764314   1.000000
      8        -14.275599   1.000000
      9        -13.266408   1.000000
     10        -12.190969   1.000000
     11        -11.317047   1.000000
     12        -10.709728   1.000000
     13        -10.275234   1.000000
     14         -9.858103   1.000000
     15         -9.432817   1.000000
     16         -9.227461   1.000000
     17         -9.103360   1.000000
     18         -8.743599   1.000000
     19         -8.587407   1.000000
     20         -8.262326   1.000000
     21         -7.524032   1.000000
     22         -7.239810   1.000000
     23         -5.581567   1.000000
     24         -4.805021   1.000000
     25         -1.001920   0.000000
     26         -0.399860   0.000000
     27         -0.238910   0.000000
     28          0.470065   0.000000
     29          0.731884   0.000000
     30          0.875125   0.000000
     31          1.475813   0.000000
     32          1.560204   0.000000
     33          1.792142   0.000000
     34          2.076610   0.000000
     35          2.155365   0.000000
     36          2.421280   0.000000
