Cluster                                 
           1
     7.756100    0.000000    0.000000
     0.000000   11.836100    0.000000
     0.000000    0.000000   11.230200
   C    F    H    O 
     7     1     7     1
Direct configuration=     1
   0.49762818  0.71118660  0.53761019
   0.50060465  0.58438358  0.54247319
   0.50925177  0.52113920  0.43831541
   0.51261158  0.40313341  0.43538053
   0.50675858  0.34448527  0.54315732
   0.49790767  0.40515787  0.64950322
   0.49494330  0.52321857  0.64947433
   0.51553386  0.57531693  0.32928212
   0.61371023  0.74445730  0.49358420
   0.38629720  0.74192842  0.48628632
   0.49065046  0.74679346  0.62765748
   0.52427896  0.40160319  0.26599392
   0.50928663  0.25238301  0.54144150
   0.49335771  0.35941568  0.73374053
   0.48793790  0.56950383  0.73343779
   0.52139886  0.34571598  0.32989546
Direct configuration=     2
   0.49675836  0.71144520  0.53743149
   0.50146818  0.58415218  0.54318398
   0.50849169  0.52162093  0.43921470
   0.51183603  0.40318394  0.43535167
   0.50641329  0.34464919  0.54235136
   0.49740040  0.40531112  0.64895369
   0.49562923  0.52295898  0.65018555
   0.51623738  0.57519615  0.32866771
   0.61391922  0.74737697  0.49447885
   0.38666035  0.73995217  0.48318032
   0.49104736  0.74672461  0.62766669
   0.52328142  0.40093840  0.26588252
   0.50593975  0.25274813  0.54239976
   0.49738643  0.36044268  0.73069894
   0.49243910  0.56777927  0.73100144
   0.52152394  0.34540387  0.33048287
Direct configuration=     3
   0.49593261  0.71170392  0.53724436
   0.50232681  0.58394602  0.54388611
   0.50774222  0.52208311  0.44007244
   0.51106325  0.40324669  0.43531683
   0.50605261  0.34481444  0.54157524
   0.49691043  0.40548796  0.64834496
   0.49632433  0.52266157  0.65080290
   0.51693633  0.57507166  0.32807048
   0.61378234  0.75008714  0.49547231
   0.38704587  0.73804104  0.48024689
   0.49120560  0.74671019  0.62763576
   0.52229582  0.40019163  0.26582673
   0.50266966  0.25305428  0.54329410
   0.50130643  0.36101936  0.72847185
   0.49684274  0.56662854  0.72966430
   0.52164917  0.34509901  0.33105735
Direct configuration=     4
   0.49517995  0.71196200  0.53704213
   0.50317830  0.58378913  0.54457308
   0.50701389  0.52250767  0.44085211
   0.51029351  0.40333435  0.43526965
   0.50566102  0.34498029  0.54085465
   0.49644824  0.40569942  0.64764259
   0.49703312  0.52230256  0.65125745
   0.51762898  0.57494172  0.32750414
   0.61308067  0.75240552  0.49660788
   0.38748175  0.73623732  0.47763942
   0.49090541  0.74678996  0.62753980
   0.52133136  0.39932989  0.26587892
   0.49954556  0.25326891  0.54405302
   0.50508530  0.36083032  0.72760166
   0.50114649  0.56646448  0.73024034
   0.52177172  0.34480444  0.33160870
Direct configuration=     5
   0.49451538  0.71221648  0.53682360
   0.50402092  0.58370421  0.54523846
   0.50631601  0.52287907  0.44152331
   0.50952558  0.40345853  0.43520385
   0.50522161  0.34514052  0.54021083
   0.49602306  0.40592734  0.64686271
   0.49775716  0.52190106  0.65155682
   0.51831440  0.57480383  0.32697892
   0.61175921  0.75421628  0.49787162
   0.38798290  0.73457827  0.47548098
   0.48995694  0.74699237  0.62735985
   0.52039766  0.39836427  0.26603237
   0.49662768  0.25340452  0.54461332
   0.50869239  0.35989451  0.72802632
   0.50538586  0.56720956  0.73265533
   0.52189094  0.34452053  0.33213153
Direct configuration=     6
   0.49394024  0.71246021  0.53659334
   0.50485396  0.58370937  0.54587415
   0.50565566  0.52318636  0.44206130
   0.50875958  0.40362831  0.43511320
   0.50471931  0.34528349  0.53966148
   0.49565210  0.40612700  0.64606786
   0.49850424  0.52151427  0.65177720
   0.51899007  0.57465755  0.32650425
   0.60994129  0.75548033  0.49919455
   0.38852663  0.73310073  0.47384786
   0.48820834  0.74733282  0.62708336
   0.51950281  0.39734700  0.26622199
   0.49397197  0.25350666  0.54492030
   0.51201713  0.35854045  0.72914560
   0.50951850  0.56834601  0.73603092
   0.52200528  0.34424525  0.33262331
Direct configuration=     7
   0.49344211  0.71268259  0.53636313
   0.50567510  0.58381887  0.54647159
   0.50503779  0.52342347  0.44244838
   0.50799471  0.40385064  0.43499477
   0.50414035  0.34539925  0.53921713
   0.49535490  0.40624578  0.64533486
   0.49929109  0.52120600  0.65200878
   0.51965702  0.57450199  0.32608692
   0.60791171  0.75623787  0.50046584
   0.38904143  0.73183986  0.47275961
   0.48555260  0.74781300  0.62670143
   0.51865173  0.39634975  0.26635125
   0.49162902  0.25362813  0.54493123
   0.51488125  0.35719402  0.73020577
   0.51341663  0.56926984  0.73931143
   0.52211357  0.34397389  0.33308385
Direct configuration=     8
   0.49299751  0.71287157  0.53615016
   0.50648304  0.58403962  0.54702281
   0.50446901  0.52358924  0.44267482
   0.50722927  0.40412830  0.43484759
   0.50347244  0.34548162  0.53888276
   0.49515005  0.40624277  0.64472585
   0.50013609  0.52102371  0.65231812
   0.52031657  0.57433631  0.32573185
   0.60606844  0.75659902  0.50155437
   0.38941547  0.73082568  0.47217442
   0.48193299  0.74842327  0.62620351
   0.51784763  0.39543084  0.26633509
   0.48963886  0.25380327  0.54461725
   0.51710424  0.35619850  0.73061139
   0.51693738  0.56953774  0.74170036
   0.52221382  0.34370205  0.33351362
Direct configuration=     9
   0.49258002  0.71301534  0.53597412
   0.50727500  0.58437196  0.54752096
   0.50395467  0.52368626  0.44273777
   0.50646027  0.40446077  0.43467420
   0.50270426  0.34552893  0.53865674
   0.49505225  0.40609689  0.64427931
   0.50105620  0.52099210  0.65274060
   0.52097056  0.57416058  0.32544238
   0.60482759  0.75671126  0.50234033
   0.38951770  0.73007843  0.47199787
   0.47734697  0.74914393  0.62557138
   0.51709410  0.39460490  0.26614019
   0.48802550  0.25402920  0.54396322
   0.51855095  0.35574543  0.73003306
   0.51996873  0.56891537  0.74275587
   0.52230477  0.34342797  0.33391082
Direct configuration=    10
   0.49216622  0.71310736  0.53585398
   0.50804718  0.58480797  0.54795977
   0.50349855  0.52372343  0.44264028
   0.50568438  0.40484447  0.43447933
   0.50182456  0.34554563  0.53853314
   0.49507089  0.40580771  0.64401069
   0.50206629  0.52111390  0.65327990
   0.52162254  0.57397381  0.32522050
   0.60449007  0.75670957  0.50275467
   0.38923279  0.72960585  0.47210328
   0.47185128  0.74994902  0.62477754
   0.51639908  0.39383645  0.26580146
   0.48679873  0.25426334  0.54296817
   0.51915280  0.35586726  0.72841875
   0.52244994  0.56735671  0.74236271
   0.52238438  0.34315305  0.33427008
Direct configuration=    11
   0.49174471  0.71315017  0.53580151
   0.50879400  0.58533328  0.54833361
   0.50310502  0.52371351  0.44238995
   0.50489716  0.40527161  0.43427054
   0.50082457  0.34554139  0.53850212
   0.49520989  0.40539609  0.64391136
   0.50317458  0.52137119  0.65390780
   0.52227367  0.57377556  0.32506806
   0.60511350  0.75666520  0.50281060
   0.38850286  0.72939845  0.47235624
   0.46557098  0.75080524  0.62378808
   0.51577598  0.39305641  0.26540292
   0.48595682  0.25443424  0.54164388
   0.51892174  0.35642936  0.72600299
   0.52438896  0.56500012  0.74073594
   0.52245175  0.34288024  0.33458386
Direct configuration=    12
   0.49131472  0.71315710  0.53581882
   0.50950765  0.58592822  0.54863887
   0.50277842  0.52367297  0.44199841
   0.50409579  0.40572920  0.43405763
   0.49969727  0.34552836  0.53854878
   0.49546498  0.40490369  0.64394745
   0.50438075  0.52172328  0.65455930
   0.52292685  0.57356579  0.32498561
   0.60646833  0.75656865  0.50261037
   0.38736603  0.72942564  0.47263958
   0.45870412  0.75167407  0.62257223
   0.51524128  0.39219494  0.26503682
   0.48548972  0.25446774  0.54001557
   0.51796562  0.35711301  0.72333574
   0.52589422  0.56219975  0.73849781
   0.52250314  0.34261361  0.33484419
Direct configuration=    13
   0.49088123  0.71315012  0.53589851
   0.51017858  0.58656593  0.54887469
   0.50252537  0.52362187  0.44148241
   0.50327963  0.40620168  0.43385179
   0.49843597  0.34551781  0.53865654
   0.49582373  0.40438981  0.64406033
   0.50566918  0.52210806  0.65512484
   0.52358357  0.57334521  0.32497387
   0.60811446  0.75635708  0.50231838
   0.38597173  0.72963316  0.47286792
   0.45151381  0.75251372  0.62111482
   0.51481052  0.39121265  0.26475921
   0.48538224  0.25432042  0.53812264
   0.51648013  0.35743542  0.72124832
   0.52720360  0.55953074  0.73672471
   0.52253639  0.34235560  0.33504500
Direct configuration=    14
   0.49044629  0.71315341  0.53602564
   0.51079575  0.58721781  0.54904015
   0.50235214  0.52358149  0.44086087
   0.50244773  0.40666907  0.43366428
   0.49703693  0.34551814  0.53880639
   0.49627316  0.40391690  0.64418825
   0.50701810  0.52245754  0.65548142
   0.52424448  0.57311480  0.32503236
   0.60954929  0.75596470  0.50211521
   0.38455861  0.72994605  0.47298533
   0.44429927  0.75328263  0.61942598
   0.51449211  0.39011720  0.26456105
   0.48561318  0.25400727  0.53601778
   0.51466724  0.35690304  0.72059244
   0.52862578  0.55762788  0.73667183
   0.52254906  0.34210637  0.33518621
Direct configuration=    15
   0.48999945  0.71318959  0.53618417
   0.51134921  0.58785605  0.54913545
   0.50226344  0.52357249  0.44015352
   0.50159776  0.40711245  0.43350338
   0.49549899  0.34553001  0.53897758
   0.49680966  0.40351925  0.64430667
   0.50841799  0.52273157  0.65555891
   0.52491176  0.57287698  0.32515935
   0.61034797  0.75536548  0.50215842
   0.38340406  0.73027793  0.47295099
   0.43736492  0.75394483  0.61754605
   0.51428547  0.38896100  0.26436845
   0.48615349  0.25360865  0.53376794
   0.51260384  0.35530913  0.72175162
   0.53032671  0.55681952  0.73898683
   0.52253969  0.34186291  0.33527353
Direct configuration=    16
   0.48951924  0.71327610  0.53635893
   0.51182990  0.58845313  0.54915907
   0.50226391  0.52361305  0.43938298
   0.50072740  0.40751370  0.43337601
   0.49382217  0.34554955  0.53914900
   0.49744119  0.40319008  0.64445174
   0.50988802  0.52293517  0.65539287
   0.52558698  0.57263451  0.32535032
   0.61025308  0.75459717  0.50255673
   0.38277006  0.73054061  0.47271954
   0.43100027  0.75447292  0.61555033
   0.51418286  0.38782200  0.26407207
   0.48695942  0.25325261  0.53145743
   0.51021419  0.35291954  0.72435030
   0.53216048  0.55691426  0.74310429
   0.52250589  0.34162105  0.33531644
Direct configuration=    17
   0.48897428  0.71342177  0.53653868
   0.51222957  0.58898384  0.54910799
   0.50235692  0.52371732  0.43857361
   0.49983515  0.40785524  0.43328769
   0.49201148  0.34557177  0.53930013
   0.49817503  0.40289417  0.64469743
   0.51145680  0.52309796  0.65508688
   0.52627463  0.57239068  0.32559943
   0.60923050  0.75377348  0.50335733
   0.38285503  0.73065625  0.47222842
   0.42545990  0.75485389  0.61355378
   0.51417465  0.38677253  0.26358299
   0.48796588  0.25307644  0.52918912
   0.50739643  0.35031578  0.72751888
   0.53379941  0.55744488  0.74769047
   0.52244532  0.34137801  0.33532287
Direct configuration=    18
   0.48832801  0.71362431  0.53671649
   0.51254083  0.58942452  0.54897761
   0.50254502  0.52389375  0.43775314
   0.49892027  0.40812316  0.43324110
   0.49007552  0.34559393  0.53941602
   0.49901088  0.40259404  0.64511288
   0.51314768  0.52324570  0.65474313
   0.52697751  0.57215101  0.32589858
   0.60749363  0.75308005  0.50454124
   0.38376298  0.73056676  0.47139467
   0.42092802  0.75509313  0.61170356
   0.51425588  0.38584616  0.26288665
   0.48908613  0.25318255  0.52707394
   0.50413839  0.34809807  0.73036832
   0.53495655  0.55799380  0.75145040
   0.52235558  0.34113349  0.33529852
Direct configuration=    19
   0.48753964  0.71387261  0.53689002
   0.51275869  0.58975599  0.54876427
   0.50282974  0.52414281  0.43695295
   0.49798100  0.40830941  0.43323610
   0.48802316  0.34561999  0.53948819
   0.49993975  0.40226272  0.64574098
   0.51497330  0.52338927  0.65443112
   0.52770059  0.57192174  0.32623804
   0.60547758  0.75275564  0.50603570
   0.38549558  0.73024136  0.47012085
   0.41749349  0.75521510  0.61016352
   0.51442857  0.38502562  0.26206305
   0.49021626  0.25360421  0.52521761
   0.50052885  0.34671374  0.73225379
   0.53547160  0.55830616  0.75348954
   0.52223393  0.34089000  0.33524299
Direct configuration=    20
   0.48657173  0.71414937  0.53705828
   0.51288050  0.58996111  0.54846441
   0.50321027  0.52445859  0.43620454
   0.49701593  0.40841142  0.43327105
   0.48586428  0.34566091  0.53951738
   0.50094671  0.40188909  0.64659336
   0.51693651  0.52352589  0.65418715
   0.52845193  0.57171032  0.32660641
   0.60372802  0.75304845  0.50774994
   0.38796976  0.72967959  0.46831128
   0.41513649  0.75525903  0.60909728
   0.51469748  0.38426219  0.26125724
   0.49124299  0.25429097  0.52370956
   0.49672088  0.34641980  0.73282999
   0.53529874  0.55827488  0.75332022
   0.52207659  0.34065206  0.33515311
Direct configuration=    21
   0.48540685  0.71443544  0.53721638
   0.51290788  0.59002729  0.54807461
   0.50368373  0.52482793  0.43554412
   0.49602363  0.40843051  0.43334163
   0.48360925  0.34573596  0.53951344
   0.50201327  0.40147809  0.64764911
   0.51903170  0.52364168  0.65401829
   0.52923962  0.57152516  0.32698977
   0.60269538  0.75414206  0.50962937
   0.39105141  0.72891076  0.46589952
   0.41373892  0.75526714  0.60864568
   0.51506441  0.38351086  0.26061729
   0.49205010  0.25511319  0.52261679
   0.49289686  0.34728069  0.73205254
   0.53448183  0.55791656  0.75081790
   0.52188001  0.34042451  0.33502660
Direct configuration=    22
   0.48406138  0.71471839  0.53735215
   0.51284713  0.58994657  0.54759385
   0.50424425  0.52522949  0.43500852
   0.49500601  0.40837216  0.43344291
   0.48127448  0.34586714  0.53949425
   0.50311932  0.40105317  0.64885121
   0.52124062  0.52371220  0.65389518
   0.53006980  0.57137635  0.32737262
   0.60250920  0.75607504  0.51169981
   0.39460077  0.72799357  0.46289227
   0.41311054  0.75527067  0.60889612
   0.51552198  0.38276563  0.26023443
   0.49252302  0.25589303  0.52198503
   0.48923114  0.34913708  0.73022531
   0.53314829  0.55739163  0.74628718
   0.52164058  0.34021023  0.33486514
Direct configuration=    23
   0.48258746  0.71499606  0.53744558
   0.51270730  0.58971766  0.54702468
   0.50488265  0.52563460  0.43463653
   0.49396910  0.40824613  0.43356845
   0.47888818  0.34607393  0.53948237
   0.50424627  0.40066295  0.65009868
   0.52353008  0.52369576  0.65374046
   0.53094548  0.57127453  0.32773651
   0.60289564  0.75869969  0.51405904
   0.39850578  0.72701314  0.45941252
   0.41302578  0.75527061  0.60984407
   0.51605105  0.38207703  0.26010461
   0.49255007  0.25645553  0.52184205
   0.48582143  0.35154386  0.72809123
   0.53150783  0.55707237  0.74065879
   0.52135608  0.34000971  0.33467680
Direct configuration=    24
   0.48105903  0.71527427  0.53747564
   0.51250159  0.58934662  0.54637528
   0.50558663  0.52601043  0.43446086
   0.49292428  0.40806517  0.43370982
   0.47648782  0.34636687  0.53950384
   0.50538253  0.40038010  0.65125159
   0.52585399  0.52353039  0.65341822
   0.53186860  0.57122977  0.32806337
   0.60331138  0.76171966  0.51681784
   0.40268772  0.72607475  0.45571065
   0.41326169  0.75522444  0.61136433
   0.51662387  0.38154541  0.26012886
   0.49202189  0.25669149  0.52220107
   0.48260406  0.35378647  0.72680517
   0.52980273  0.55760285  0.73560505
   0.52102483  0.33982078  0.33447589
Direct configuration=    25
   0.47954772  0.71556366  0.53742676
   0.51224762  0.58884877  0.54565746
   0.50634285  0.52632319  0.43450063
   0.49188452  0.40784296  0.43385699
   0.47411338  0.34674118  0.53958256
   0.50652935  0.40027300  0.65217995
   0.52817334  0.52315052  0.65278172
   0.53283594  0.57125003  0.32833709
   0.60318074  0.76478206  0.52004329
   0.40708285  0.72529408  0.45212526
   0.41362173  0.75504711  0.61321945
   0.51721321  0.38128826  0.26016527
   0.49083024  0.25660272  0.52306667
   0.47937994  0.35517500  0.72748529
   0.52817539  0.55972140  0.73296523
   0.52064654  0.33964070  0.33428058
Direct configuration=    26
   0.47811472  0.71586978  0.53729348
   0.51196546  0.58824908  0.54488208
   0.50713908  0.52654190  0.43475954
   0.49086512  0.40759274  0.43399974
   0.47179897  0.34718031  0.53973824
   0.50767500  0.40036365  0.65282941
   0.53046297  0.52253941  0.65180202
   0.53384380  0.57133945  0.32854730
   0.60208234  0.76756045  0.52372995
   0.41160245  0.72478719  0.44900433
   0.41393041  0.75462918  0.61510627
   0.51779936  0.38139141  0.26011462
   0.48886985  0.25629808  0.52443535
   0.47609135  0.35554043  0.73040331
   0.52661654  0.56363355  0.73324623
   0.52021921  0.33946901  0.33410701
Direct configuration=    27
   0.47680748  0.71619083  0.53708243
   0.51167560  0.58757893  0.54406298
   0.50796144  0.52663921  0.43522052
   0.48988071  0.40732562  0.43412905
   0.46958133  0.34765955  0.53998524
   0.50877380  0.40061527  0.65324446
   0.53269402  0.52176461  0.65060731
   0.53488780  0.57149906  0.32869108
   0.59983770  0.76979869  0.52779403
   0.41608625  0.72466207  0.44663556
   0.41400780  0.75386523  0.61671482
   0.51836917  0.38186929  0.25999004
   0.48605510  0.25595213  0.52628510
   0.47306615  0.35534336  0.73472744
   0.52516411  0.56863449  0.73515331
   0.51974063  0.33930921  0.33396258
Direct configuration=    28
   0.47566321  0.71651405  0.53681196
   0.51139834  0.58687759  0.54322271
   0.50879601  0.52659319  0.43584477
   0.48894920  0.40705077  0.43423737
   0.46749762  0.34814981  0.54033408
   0.50976081  0.40096672  0.65351175
   0.53481985  0.52093477  0.64936793
   0.53595806  0.57172578  0.32876981
   0.59654852  0.77134246  0.53208685
   0.42029708  0.72500622  0.44518125
   0.41364857  0.75268260  0.61779285
   0.51891303  0.38265656  0.25992240
   0.48234390  0.25574297  0.52856341
   0.47085064  0.35524682  0.73917979
   0.52400684  0.57363572  0.73695590
   0.51921077  0.33916906  0.33384698
Direct configuration=    29
   0.47470500  0.71681506  0.53650896
   0.51115292  0.58618780  0.54239289
   0.50963092  0.52638964  0.43657490
   0.48808659  0.40677315  0.43432164
   0.46557702  0.34862552  0.54078927
   0.51057905  0.40136455  0.65370367
   0.53679668  0.52014816  0.64820952
   0.53704144  0.57201283  0.32879092
   0.59258427  0.77216610  0.53643464
   0.42395573  0.72587830  0.44463264
   0.41261990  0.75105542  0.61819362
   0.51942210  0.38364182  0.26009037
   0.47774660  0.25579619  0.53118721
   0.46990889  0.35574498  0.74270127
   0.52337367  0.57774752  0.73749072
   0.51862962  0.33905874  0.33375427
Direct configuration=    30
   0.47393595  0.71706155  0.53620425
   0.51095564  0.58554750  0.54160744
   0.51045738  0.52602066  0.43734102
   0.48730469  0.40649258  0.43438454
   0.46383540  0.34907054  0.54134996
   0.51119205  0.40177326  0.65386516
   0.53859323  0.51947932  0.64719946
   0.53812822  0.57235124  0.32876614
   0.58852784  0.77237673  0.54068488
   0.42678502  0.72730555  0.44481103
   0.41067156  0.74900309  0.61789243
   0.51988876  0.38471949  0.26062928
   0.47231226  0.25615141  0.53405622
   0.47049919  0.35707954  0.74465875
   0.52344664  0.58042003  0.73622738
   0.51799725  0.33898725  0.33368149
Direct configuration=    31
   0.47334502  0.71721566  0.53592638
   0.51081963  0.58498930  0.54089961
   0.51127077  0.52548508  0.43807136
   0.48661146  0.40620450  0.43443387
   0.46227940  0.34947924  0.54201321
   0.51158319  0.40217429  0.65401381
   0.54019028  0.51898004  0.64636504
   0.53920945  0.57273087  0.32870920
   0.58506876  0.77218314  0.54473843
   0.42855418  0.72928767  0.44541347
   0.40756335  0.74658018  0.61696784
   0.52031031  0.38582961  0.26157036
   0.46611559  0.25675999  0.53706327
   0.47268141  0.35928106  0.74481023
   0.52434578  0.58138014  0.73306824
   0.51731276  0.33895973  0.33362866
Direct configuration=    32
   0.47291364  0.71724187  0.53569889
   0.51075568  0.58454027  0.54030114
   0.51206751  0.52478833  0.43869582
   0.48601266  0.40590269  0.43448125
   0.46090913  0.34985297  0.54277232
   0.51175373  0.40256330  0.65413894
   0.54157518  0.51868169  0.64570629
   0.54027806  0.57314022  0.32863264
   0.58281584  0.77181817  0.54855546
   0.42912520  0.73179508  0.44610418
   0.40311674  0.74386222  0.61555379
   0.52069157  0.38697208  0.26282403
   0.45925148  0.25750880  0.54009985
   0.47633205  0.36219687  0.74327457
   0.52613003  0.58058409  0.72823544
   0.51657669  0.33897734  0.33360255
Direct configuration=    33
   0.47262731  0.71711764  0.53553643
   0.51076994  0.58421841  0.53983081
   0.51284248  0.52394747  0.43915699
   0.48551253  0.40557801  0.43454046
   0.45972391  0.35019539  0.54361588
   0.51172411  0.40295424  0.65419940
   0.54274245  0.51859125  0.64519277
   0.54132531  0.57356727  0.32854872
   0.58206711  0.77143469  0.55213291
   0.42851114  0.73475573  0.44664261
   0.39729221  0.74093206  0.61378086
   0.52104687  0.38819169  0.26421341
   0.45183497  0.25826719  0.54306225
   0.48113441  0.36547667  0.74059098
   0.52878046  0.57826831  0.72231690
   0.51579156  0.33903567  0.33361264
Direct configuration=    34
   0.47247670  0.71684407  0.53544380
   0.51086502  0.58403084  0.53949490
   0.51359100  0.52298897  0.43941552
   0.48511444  0.40522315  0.43462557
   0.45872229  0.35050781  0.54452847
   0.51153529  0.40337945  0.65411642
   0.54369428  0.51867606  0.64475032
   0.54233813  0.57399835  0.32846867
   0.58266918  0.77103778  0.55546087
   0.42691791  0.73803357  0.44698197
   0.39027614  0.73787020  0.61171942
   0.52139786  0.38953742  0.26554437
   0.44401295  0.25894839  0.54585345
   0.48658148  0.36855332  0.73780341
   0.53216644  0.57511193  0.71643373
   0.51496203  0.33912813  0.33366469
Direct configuration=    35
   0.47244878  0.71644501  0.53541979
   0.51103912  0.58397269  0.53928342
   0.51430779  0.52195077  0.43945425
   0.48481811  0.40483316  0.43474934
   0.45789546  0.35078208  0.54548767
   0.51123733  0.40388167  0.65378937
   0.54444552  0.51885099  0.64425054
   0.54330538  0.57442035  0.32840179
   0.58408299  0.77050920  0.55850273
   0.42472814  0.74142149  0.44727232
   0.38250256  0.73474643  0.60936257
   0.52176390  0.39101142  0.26669039
   0.43597030  0.25955661  0.54839257
   0.49211344  0.37075142  0.73629017
   0.53605011  0.57235040  0.71232851
   0.51409425  0.33924977  0.33375939
Direct configuration=    36
   0.47251825  0.71595599  0.53546104
   0.51128648  0.58402816  0.53917164
   0.51498766  0.52087893  0.43927866
   0.48461967  0.40440386  0.43492107
   0.45722567  0.35100332  0.54646870
   0.51086532  0.40448623  0.65316080
   0.54501367  0.51901628  0.64355758
   0.54422083  0.57482150  0.32835392
   0.58561910  0.76969780  0.56121303
   0.42241643  0.74467342  0.44775591
   0.37458043  0.73161954  0.60665721
   0.52215323  0.39254083  0.26764084
   0.42791901  0.26018875  0.55062435
   0.49741083  0.37163134  0.73699026
   0.54024651  0.57132248  0.71176492
   0.51319270  0.33939886  0.33388973
Direct configuration=    37
   0.47264702  0.71541123  0.53556248
   0.51159884  0.58417529  0.53912553
   0.51562704  0.51982157  0.43891088
   0.48451156  0.40393424  0.43514649
   0.45668283  0.35115219  0.54744347
   0.51043145  0.40517066  0.65228789
   0.54540569  0.51916439  0.64265750
   0.54508195  0.57519167  0.32832877
   0.58667133  0.76850369  0.56356494
   0.42044551  0.74754828  0.44863410
   0.36716292  0.72854568  0.60357122
   0.52255819  0.39399322  0.26847678
   0.42009196  0.26098685  0.55251857
   0.50248894  0.37131295  0.73956185
   0.54479161  0.57224802  0.71498597
   0.51226261  0.33957585  0.33404247
Direct configuration=    38
   0.47279018  0.71483699  0.53571870
   0.51196679  0.58438978  0.53910721
   0.51622053  0.51882687  0.43838737
   0.48448549  0.40342796  0.43542684
   0.45623406  0.35120991  0.54837468
   0.50994636  0.40587687  0.65131808
   0.54563348  0.51939565  0.64169296
   0.54588488  0.57552190  0.32832859
   0.58684730  0.76692217  0.56556828
   0.41919194  0.74984752  0.44997919
   0.36083613  0.72559477  0.60015628
   0.52295858  0.39522296  0.26930077
   0.41274517  0.26206923  0.55406395
   0.50741317  0.37033256  0.74267743
   0.54972136  0.57400424  0.72033296
   0.51131070  0.33978007  0.33420192
Direct configuration=    39
   0.47290443  0.71424768  0.53592249
   0.51237891  0.58464737  0.53907879
   0.51676100  0.51793839  0.43775200
   0.48453256  0.40289396  0.43575821
   0.45584672  0.35116490  0.54922385
   0.50943381  0.40654711  0.65040330
   0.54572751  0.51981129  0.64083417
   0.54662696  0.57580479  0.32835355
   0.58602326  0.76505208  0.56728427
   0.41889540  0.75145094  0.45170335
   0.35600440  0.72284478  0.59656442
   0.52333326  0.39612892  0.27017071
   0.40611341  0.26347658  0.55526953
   0.51209933  0.36925311  0.74501015
   0.55485095  0.57535873  0.72579076
   0.51034793  0.34000643  0.33435563
Direct configuration=    40
   0.47295695  0.71364437  0.53616507
   0.51282614  0.58492625  0.53900637
   0.51724539  0.51719022  0.43705066
   0.48464362  0.40234450  0.43613381
   0.45549322  0.35101648  0.54995866
   0.50892623  0.40714821  0.64964793
   0.54572798  0.52045410  0.64019463
   0.54730640  0.57603507  0.32840146
   0.58433705  0.76307651  0.56883433
   0.41964110  0.75234039  0.45357763
   0.35280802  0.72036382  0.59302196
   0.52367281  0.39669114  0.27106884
   0.40034809  0.26514959  0.55616638
   0.51637014  0.36845811  0.74575351
   0.55988283  0.57563986  0.73000539
   0.50938132  0.34024365  0.33449637
Direct configuration=    41
   0.47292990  0.71301609  0.53643638
   0.51330158  0.58520812  0.53886278
   0.51767264  0.51660140  0.43632598
   0.48481038  0.40179263  0.43654479
   0.45515467  0.35077655  0.55055564
   0.50845403  0.40767276  0.64910497
   0.54567234  0.52131527  0.63982805
   0.54792556  0.57621061  0.32846900
   0.58212382  0.76122833  0.57039173
   0.42137975  0.75259481  0.45527700
   0.35111830  0.71820093  0.58979010
   0.52398413  0.39696899  0.27190968
   0.39548951  0.26693578  0.55680243
   0.52005052  0.36813555  0.74463031
   0.56454751  0.57465670  0.73231145
   0.50841192  0.34047883  0.33462264
Direct configuration=    42
   0.47282231  0.71234467  0.53672719
   0.51380042  0.58547720  0.53862798
   0.51804280  0.51618007  0.43561512
   0.48502847  0.40125286  0.43698042
   0.45482265  0.35046599  0.55100300
   0.50804241  0.40813314  0.64878086
   0.54558709  0.52235679  0.63974814
   0.54848787  0.57633133  0.32855202
   0.57980527  0.75974186  0.57214795
   0.42397325  0.75236247  0.45643997
   0.35057984  0.71638513  0.58713126
   0.52428717  0.39707005  0.27257414
   0.39148079  0.26861998  0.55723162
   0.52301698  0.36831247  0.74177464
   0.56865166  0.57249857  0.73250630
   0.50743735  0.34069785  0.33473776
Direct configuration=    43
   0.47265111  0.71161765  0.53702721
   0.51432005  0.58572011  0.53829119
   0.51835879  0.51592550  0.43495082
   0.48529229  0.40073978  0.43743085
   0.45449713  0.35011166  0.55129727
   0.50770637  0.40855539  0.64864355
   0.54548913  0.52352272  0.63993661
   0.54899701  0.57639794  0.32864545
   0.57773493  0.75879062  0.57425934
   0.42725398  0.75181462  0.45675863
   0.35068815  0.71492995  0.58527249
   0.52460255  0.39710117  0.27296252
   0.38820679  0.26997118  0.55750651
   0.52522765  0.36886645  0.73768076
   0.57208973  0.56943442  0.73072585
   0.50645560  0.34088733  0.33484566
Direct configuration=    44
   0.47245006  0.71083650  0.53732498
   0.51485910  0.58592451  0.53785335
   0.51862404  0.51583114  0.43436170
   0.48559740  0.40026895  0.43788382
   0.45418486  0.34974123  0.55144306
   0.50744589  0.40897742  0.64862114
   0.54538062  0.52474097  0.64034221
   0.54945712  0.57641198  0.32874464
   0.57605361  0.75842546  0.57678439
   0.43108757  0.75108679  0.45609042
   0.35090999  0.71383674  0.58435759
   0.52493626  0.39712109  0.27304404
   0.38555188  0.27080208  0.55767147
   0.52675492  0.36950792  0.73321344
   0.57488218  0.56590723  0.72747107
   0.50546550  0.34103846  0.33494651
Direct configuration=    45
   0.47226055  0.71002332  0.53760794
   0.51541737  0.58607886  0.53732677
   0.51884099  0.51588504  0.43387217
   0.48593979  0.39985485  0.43832558
   0.45389147  0.34937813  0.55145265
   0.50724535  0.40944639  0.64861163
   0.54524541  0.52592300  0.64087075
   0.54987075  0.57637610  0.32884294
   0.57464334  0.75855243  0.57965003
   0.43539938  0.75023427  0.45453795
   0.35084251  0.71309524  0.58439642
   0.52526986  0.39711966  0.27287662
   0.38345573  0.27102615  0.55775757
   0.52780330  0.36979458  0.72952788
   0.57725495  0.56256262  0.72372962
   0.50446916  0.34114811  0.33503646
Direct configuration=    46
   0.47211132  0.70921563  0.53786378
   0.51599581  0.58617511  0.53673267
   0.51901381  0.51607005  0.43350005
   0.48631660  0.39950903  0.43874274
   0.45361790  0.34903629  0.55134238
   0.50708104  0.41000484  0.64851919
   0.54504332  0.52697327  0.64138521
   0.55024049  0.57629320  0.32893399
   0.57321930  0.75897031  0.58267718
   0.44014886  0.74923356  0.45243329
   0.35034397  0.71268207  0.58523868
   0.52556393  0.39703586  0.27258264
   0.38194179  0.27068292  0.55778214
   0.52863613  0.36929189  0.72767722
   0.57971137  0.56019870  0.72097187
   0.50346974  0.34121841  0.33510902
Direct configuration=    47
   0.47201269  0.70845444  0.53808658
   0.51659558  0.58620911  0.53609803
   0.51914762  0.51636595  0.43325637
   0.48672648  0.39923988  0.43912065
   0.45336070  0.34872053  0.55112982
   0.50693691  0.41066536  0.64831013
   0.54472446  0.52781496  0.64175610
   0.55056898  0.57616628  0.32901132
   0.57148339  0.75944481  0.58564501
   0.44528192  0.74802636  0.45022078
   0.34954746  0.71255819  0.58659886
   0.52577406  0.39680096  0.27229406
   0.38110538  0.26991450  0.55775102