  16  16   1   0
  0.6432613E+02  0.7753300E-09  0.1181980E-08  0.1123080E-08  0.2000000E-15
  1.000000000000000E-004
  CAR 
 QM9                                     
      4.24478073    -31.70152830  301     -4.37484462      1.00000000
    -31.702  0.0000E+00  0.0000E+00
    -31.582  0.0000E+00  0.0000E+00
    -31.462  0.0000E+00  0.0000E+00
    -31.342  0.0000E+00  0.0000E+00
    -31.222  0.0000E+00  0.0000E+00
    -31.102  0.0000E+00  0.0000E+00
    -30.983  0.0000E+00  0.0000E+00
    -30.863  0.0000E+00  0.0000E+00
    -30.743  0.0000E+00  0.0000E+00
    -30.623  0.3336E-14  0.3997E-15
    -30.503  0.5998E-09  0.7187E-10
    -30.383  0.6608E-05  0.7918E-06
    -30.264  0.4631E-02  0.5557E-03
    -30.144  0.2298E+00  0.2809E-01
    -30.024  0.9859E+00  0.1462E+00
    -29.904  0.4314E+00  0.1979E+00
    -29.784  0.1735E-01  0.2000E+00
    -29.665  0.5170E-04  0.2000E+00
    -29.545  0.1001E-07  0.2000E+00
    -29.425  0.1186E-12  0.2000E+00
    -29.305  0.0000E+00  0.2000E+00
    -29.185  0.0000E+00  0.2000E+00
    -29.065  0.0000E+00  0.2000E+00
    -28.946  0.0000E+00  0.2000E+00
    -28.826  0.0000E+00  0.2000E+00
    -28.706  0.0000E+00  0.2000E+00
    -28.586  0.0000E+00  0.2000E+00
    -28.466  0.0000E+00  0.2000E+00
    -28.347  0.0000E+00  0.2000E+00
    -28.227  0.0000E+00  0.2000E+00
    -28.107  0.0000E+00  0.2000E+00
    -27.987  0.0000E+00  0.2000E+00
    -27.867  0.0000E+00  0.2000E+00
    -27.747  0.0000E+00  0.2000E+00
    -27.628  0.0000E+00  0.2000E+00
    -27.508  0.0000E+00  0.2000E+00
    -27.388  0.0000E+00  0.2000E+00
    -27.268  0.0000E+00  0.2000E+00
    -27.148  0.0000E+00  0.2000E+00
    -27.029  0.0000E+00  0.2000E+00
    -26.909  0.0000E+00  0.2000E+00
    -26.789  0.0000E+00  0.2000E+00
    -26.669  0.1205E-14  0.2000E+00
    -26.549  0.2620E-09  0.2000E+00
    -26.429  0.3573E-05  0.2000E+00
    -26.310  0.3084E-02  0.2004E+00
    -26.190  0.1863E+00  0.2227E+00
    -26.070  0.9567E+00  0.3373E+00
    -25.950  0.4987E+00  0.3971E+00
    -25.830  0.2427E-01  0.4000E+00
    -25.710  0.8882E-04  0.4000E+00
    -25.591  0.2127E-07  0.4000E+00
    -25.471  0.3126E-12  0.4000E+00
    -25.351  0.0000E+00  0.4000E+00
    -25.231  0.0000E+00  0.4000E+00
    -25.111  0.0000E+00  0.4000E+00
    -24.992  0.0000E+00  0.4000E+00
    -24.872  0.0000E+00  0.4000E+00
    -24.752  0.0000E+00  0.4000E+00
    -24.632  0.0000E+00  0.4000E+00
    -24.512  0.0000E+00  0.4000E+00
    -24.392  0.0000E+00  0.4000E+00
    -24.273  0.0000E+00  0.4000E+00
    -24.153  0.0000E+00  0.4000E+00
    -24.033  0.0000E+00  0.4000E+00
    -23.913  0.0000E+00  0.4000E+00
    -23.793  0.0000E+00  0.4000E+00
    -23.674  0.0000E+00  0.4000E+00
    -23.554  0.0000E+00  0.4000E+00
    -23.434  0.0000E+00  0.4000E+00
    -23.314  0.0000E+00  0.4000E+00
    -23.194  0.0000E+00  0.4000E+00
    -23.074  0.0000E+00  0.4000E+00
    -22.955  0.0000E+00  0.4000E+00
    -22.835  0.0000E+00  0.4000E+00
    -22.715  0.0000E+00  0.4000E+00
    -22.595  0.0000E+00  0.4000E+00
    -22.475  0.0000E+00  0.4000E+00
    -22.355  0.0000E+00  0.4000E+00
    -22.236  0.0000E+00  0.4000E+00
    -22.116  0.0000E+00  0.4000E+00
    -21.996  0.0000E+00  0.4000E+00
    -21.876  0.0000E+00  0.4000E+00
    -21.756  0.0000E+00  0.4000E+00
    -21.637  0.0000E+00  0.4000E+00
    -21.517  0.0000E+00  0.4000E+00
    -21.397  0.0000E+00  0.4000E+00
    -21.277  0.1121E-13  0.4000E+00
    -21.157  0.1577E-08  0.4000E+00
    -21.037  0.1347E-04  0.4000E+00
    -20.918  0.7368E-02  0.4009E+00
    -20.798  0.2895E+00  0.4356E+00
    -20.678  0.1004E+01  0.5559E+00
    -20.558  0.3564E+00  0.5986E+00
    -20.438  0.1139E-01  0.6000E+00
    -20.319  0.2655E-04  0.6000E+00
    -20.199  0.3990E-08  0.6000E+00
    -20.079  0.3669E-13  0.6000E+00
    -19.959  0.0000E+00  0.6000E+00
    -19.839  0.0000E+00  0.6000E+00
    -19.719  0.0000E+00  0.6000E+00
    -19.600  0.0000E+00  0.6000E+00
    -19.480  0.0000E+00  0.6000E+00
    -19.360  0.0000E+00  0.6000E+00
    -19.240  0.0000E+00  0.6000E+00
    -19.120  0.1536E-11  0.6000E+00
    -19.000  0.7278E-07  0.6000E+00
    -18.881  0.2129E-03  0.6000E+00
    -18.761  0.4127E-01  0.6050E+00
    -18.641  0.6168E+00  0.6789E+00
    -18.521  0.8826E+00  0.7846E+00
    -18.401  0.1268E+00  0.7998E+00
    -18.282  0.1503E-02  0.8000E+00
    -18.162  0.1225E-05  0.8000E+00
    -18.042  0.9642E-07  0.8000E+00
    -17.922  0.2594E-03  0.8000E+00
    -17.802  0.4643E-01  0.8056E+00
    -17.682  0.6445E+00  0.8828E+00
    -17.563  0.8615E+00  0.9860E+00
    -17.443  0.1152E+00  0.9998E+00
    -17.323  0.1262E-02  0.1000E+01
    -17.203  0.9475E-06  0.1000E+01
    -17.083  0.4457E-10  0.1000E+01
    -16.964  0.6486E-15  0.1000E+01
    -16.844  0.1578E-09  0.1000E+01
    -16.724  0.2448E-05  0.1000E+01
    -16.604  0.2396E-02  0.1000E+01
    -16.484  0.1631E+00  0.1020E+01
    -16.364  0.9335E+00  0.1132E+01
    -16.245  0.5405E+00  0.1196E+01
    -16.125  0.2950E-01  0.1200E+01
    -16.005  0.1221E-03  0.1200E+01
    -15.885  0.3322E-07  0.1200E+01
    -15.765  0.5558E-12  0.1200E+01
    -15.646  0.0000E+00  0.1200E+01
    -15.526  0.0000E+00  0.1200E+01
    -15.406  0.7413E-15  0.1200E+01
    -15.286  0.1893E-09  0.1200E+01
    -15.166  0.2805E-05  0.1200E+01
    -15.046  0.2624E-02  0.1200E+01
    -14.927  0.1712E+00  0.1221E+01
    -14.807  0.9422E+00  0.1334E+01
    -14.687  0.5255E+00  0.1397E+01
    -14.567  0.2753E-01  0.1400E+01
    -14.447  0.1134E-03  0.1400E+01
    -14.327  0.3520E-02  0.1400E+01
    -14.208  0.1996E+00  0.1424E+01
    -14.088  0.9674E+00  0.1540E+01
    -13.968  0.4767E+00  0.1597E+01
    -13.848  0.2183E-01  0.1600E+01
    -13.728  0.7477E-04  0.1600E+01
    -13.609  0.4954E-05  0.1600E+01
    -13.489  0.3822E-02  0.1600E+01
    -13.369  0.2083E+00  0.1625E+01
    -13.249  0.9735E+00  0.1742E+01
    -13.129  0.4631E+00  0.1798E+01
    -13.009  0.2040E-01  0.1800E+01
    -12.890  0.6706E-04  0.1800E+01
    -12.770  0.1437E-07  0.1800E+01
    -12.650  0.1886E-12  0.1800E+01
    -12.530  0.5652E-14  0.1800E+01
    -12.410  0.9137E-09  0.1800E+01
    -12.291  0.9016E-05  0.1800E+01
    -12.171  0.5676E-02  0.1801E+01
    -12.051  0.2546E+00  0.1831E+01
    -11.931  0.9962E+00  0.1951E+01
    -11.811  0.4111E+00  0.2000E+01
    -11.691  0.3929E+00  0.2047E+01
    -11.572  0.1001E+01  0.2167E+01
    -11.452  0.2706E+00  0.2199E+01
    -11.332  0.6417E-02  0.2200E+01
    -11.212  0.1089E-04  0.2200E+01
    -11.092  0.7788E-07  0.2200E+01
    -10.972  0.2209E-03  0.2200E+01
    -10.853  0.4223E-01  0.2205E+01
    -10.733  0.6356E+00  0.2281E+01
    -10.613  0.1266E+01  0.2433E+01
    -10.493  0.1124E+01  0.2568E+01
    -10.373  0.2650E+00  0.2599E+01
    -10.254  0.6086E-02  0.2600E+01
    -10.134  0.1003E-04  0.2600E+01
    -10.014  0.4937E-05  0.2600E+01
     -9.894  0.4287E-02  0.2601E+01
     -9.774  0.2826E+00  0.2634E+01
     -9.654  0.1745E+01  0.2843E+01
     -9.535  0.1237E+01  0.2992E+01
     -9.415  0.5726E+00  0.3060E+01
     -9.295  0.9658E+00  0.3176E+01
     -9.175  0.2158E+00  0.3202E+01
     -9.055  0.4538E+00  0.3256E+01
     -8.936  0.9788E+00  0.3374E+01
     -8.816  0.2188E+00  0.3400E+01
     -8.696  0.1570E+00  0.3419E+01
     -8.576  0.1047E+01  0.3544E+01
     -8.456  0.1449E+01  0.3718E+01
     -8.336  0.6466E+00  0.3795E+01
     -8.217  0.9805E-01  0.3807E+01
     -8.097  0.6948E+00  0.3890E+01
     -7.977  0.8199E+00  0.3988E+01
     -7.857  0.9652E-01  0.4000E+01
     -7.737  0.6865E-01  0.4008E+01
     -7.618  0.1075E+01  0.4137E+01
     -7.498  0.1831E+01  0.4356E+01
     -7.378  0.3578E+00  0.4399E+01
     -7.258  0.6735E-02  0.4400E+01
     -7.138  0.9804E-05  0.4400E+01
     -7.018  0.9562E-09  0.4400E+01
     -6.899  0.5745E-14  0.4400E+01
     -6.779  0.0000E+00  0.4400E+01
     -6.659  0.0000E+00  0.4400E+01
     -6.539  0.0000E+00  0.4400E+01
     -6.419  0.0000E+00  0.4400E+01
     -6.299  0.0000E+00  0.4400E+01
     -6.180  0.0000E+00  0.4400E+01
     -6.060  0.0000E+00  0.4400E+01
     -5.940  0.2808E-13  0.4400E+01
     -5.820  0.3247E-08  0.4400E+01
     -5.700  0.2285E-04  0.4400E+01
     -5.581  0.1035E-01  0.4401E+01
     -5.461  0.3407E+00  0.4442E+01
     -5.341  0.1006E+01  0.4563E+01
     -5.221  0.3038E+00  0.4599E+01
     -5.101  0.8549E-02  0.4600E+01
     -4.981  0.6083E-01  0.4607E+01
     -4.862  0.7095E+00  0.4692E+01
     -4.742  0.8067E+00  0.4789E+01
     -4.622  0.9092E-01  0.4800E+01
     -4.502  0.8267E-03  0.4800E+01
     -4.382  0.5104E-06  0.4800E+01
     -4.263  0.1966E-10  0.4800E+01
     -4.143  0.0000E+00  0.4800E+01
     -4.023  0.0000E+00  0.4800E+01
     -3.903  0.0000E+00  0.4800E+01
     -3.783  0.0000E+00  0.4800E+01
     -3.663  0.0000E+00  0.4800E+01
     -3.544  0.0000E+00  0.4800E+01
     -3.424  0.0000E+00  0.4800E+01
     -3.304  0.0000E+00  0.4800E+01
     -3.184  0.0000E+00  0.4800E+01
     -3.064  0.0000E+00  0.4800E+01
     -2.944  0.0000E+00  0.4800E+01
     -2.825  0.0000E+00  0.4800E+01
     -2.705  0.0000E+00  0.4800E+01
     -2.585  0.0000E+00  0.4800E+01
     -2.465  0.0000E+00  0.4800E+01
     -2.345  0.0000E+00  0.4800E+01
     -2.226  0.0000E+00  0.4800E+01
     -2.106  0.0000E+00  0.4800E+01
     -1.986  0.0000E+00  0.4800E+01
     -1.866  0.0000E+00  0.4800E+01
     -1.746  0.0000E+00  0.4800E+01
     -1.626  0.0000E+00  0.4800E+01
     -1.507  0.0000E+00  0.4800E+01
     -1.387  0.0000E+00  0.4800E+01
     -1.267  0.0000E+00  0.4800E+01
     -1.147  0.0000E+00  0.4800E+01
     -1.027  0.8802E-14  0.4800E+01
     -0.908  0.1301E-08  0.4800E+01
     -0.788  0.1169E-04  0.4800E+01
     -0.668  0.6724E-02  0.4801E+01
     -0.548  0.2779E+00  0.4834E+01
     -0.428  0.1110E+01  0.4967E+01
     -0.308  0.1414E+01  0.5137E+01
     -0.189  0.1655E+01  0.5335E+01
     -0.069  0.5225E+00  0.5397E+01
      0.051  0.2158E-01  0.5400E+01
      0.171  0.2810E-01  0.5403E+01
      0.291  0.5294E+00  0.5467E+01
      0.411  0.9402E+00  0.5579E+01
      0.530  0.1995E+00  0.5603E+01
      0.650  0.5545E+00  0.5670E+01
      0.770  0.1166E+01  0.5809E+01
      0.890  0.1150E+01  0.5947E+01
      1.010  0.5601E+00  0.6014E+01
      1.129  0.9130E+00  0.6124E+01
      1.249  0.5976E+00  0.6195E+01
      1.369  0.4145E-01  0.6200E+01
      1.489  0.1977E+00  0.6224E+01
      1.609  0.9714E+00  0.6340E+01
      1.729  0.7680E+00  0.6432E+01
      1.848  0.1628E+01  0.6628E+01
      1.968  0.1329E+01  0.6787E+01
      2.088  0.7246E+00  0.6874E+01
      2.208  0.9097E+00  0.6983E+01
      2.328  0.1432E+00  0.7000E+01
      2.447  0.1923E-01  0.7002E+01
      2.567  0.4314E+00  0.7054E+01
      2.687  0.9859E+00  0.7172E+01
      2.807  0.2298E+00  0.7199E+01
      2.927  0.4631E-02  0.7200E+01
      3.047  0.6608E-05  0.7200E+01
      3.166  0.5998E-09  0.7200E+01
      3.286  0.3336E-14  0.7200E+01
      3.406  0.0000E+00  0.7200E+01
      3.526  0.0000E+00  0.7200E+01
      3.646  0.0000E+00  0.7200E+01
      3.765  0.0000E+00  0.7200E+01
      3.885  0.0000E+00  0.7200E+01
      4.005  0.0000E+00  0.7200E+01
      4.125  0.0000E+00  0.7200E+01
      4.245  0.0000E+00  0.7200E+01
      4.24478073    -31.70152830  301     -4.37484462      1.00000000
    -31.702  0.0000E+00  0.0000E+00  0.0000E+00  0.0000E+00  0.0000E+00  0.0000E+00  0.0000E+00  0.0000E+00  0.0000E+00
    -31.582  0.0000E+00  0.0000E+00  0.0000E+00  0.0000E+00  0.0000E+00  0.0000E+00  0.0000E+00  0.0000E+00  0.0000E+00
    -31.462  0.0000E+00  0.0000E+00  0.0000E+00  0.0000E+00  0.0000E+00  0.0000E+00  0.0000E+00  0.0000E+00  0.0000E+00
    -31.342  0.0000E+00  0.0000E+00  0.0000E+00  0.0000E+00  0.0000E+00  0.0000E+00  0.0000E+00  0.0000E+00  0.0000E+00
    -31.222  0.0000E+00  0.0000E+00  0.0000E+00  0.0000E+00  0.0000E+00  0.0000E+00  0.0000E+00  0.0000E+00  0.0000E+00
    -31.102  0.0000E+00  0.0000E+00  0.0000E+00  0.0000E+00  0.0000E+00  0.0000E+00  0.0000E+00  0.0000E+00  0.0000E+00
    -30.983  0.0000E+00  0.0000E+00  0.0000E+00  0.0000E+00  0.0000E+00  0.0000E+00  0.0000E+00  0.0000E+00  0.0000E+00
    -30.863  0.0000E+00  0.0000E+00  0.0000E+00  0.0000E+00  0.0000E+00  0.0000E+00  0.0000E+00  0.0000E+00  0.0000E+00
    -30.743  0.0000E+00  0.0000E+00  0.0000E+00  0.0000E+00  0.0000E+00  0.0000E+00  0.0000E+00  0.0000E+00  0.0000E+00
    -30.623  0.9102E-20  0.3418E-20  0.1103E-20  0.6730E-23  0.0000E+00  0.0000E+00  0.0000E+00  0.0000E+00  0.0000E+00
    -30.503  0.1637E-14  0.6147E-15  0.1983E-15  0.1210E-17  0.0000E+00  0.0000E+00  0.0000E+00  0.0000E+00  0.0000E+00
    -30.383  0.1803E-10  0.6771E-11  0.2185E-11  0.1333E-13  0.0000E+00  0.0000E+00  0.0000E+00  0.0000E+00  0.0000E+00
    -30.264  0.1264E-07  0.4745E-08  0.1531E-08  0.9343E-11  0.0000E+00  0.0000E+00  0.0000E+00  0.0000E+00  0.0000E+00
    -30.144  0.6270E-06  0.2355E-06  0.7597E-07  0.4636E-09  0.0000E+00  0.0000E+00  0.0000E+00  0.0000E+00  0.0000E+00
    -30.024  0.2690E-05  0.1010E-05  0.3260E-06  0.1989E-08  0.0000E+00  0.0000E+00  0.0000E+00  0.0000E+00  0.0000E+00
    -29.904  0.1177E-05  0.4421E-06  0.1426E-06  0.8704E-09  0.0000E+00  0.0000E+00  0.0000E+00  0.0000E+00  0.0000E+00
    -29.784  0.4734E-07  0.1778E-07  0.5736E-08  0.3500E-10  0.0000E+00  0.0000E+00  0.0000E+00  0.0000E+00  0.0000E+00
    -29.665  0.1411E-09  0.5298E-10  0.1709E-10  0.1043E-12  0.0000E+00  0.0000E+00  0.0000E+00  0.0000E+00  0.0000E+00
    -29.545  0.2732E-13  0.1026E-13  0.3310E-14  0.2020E-16  0.0000E+00  0.0000E+00  0.0000E+00  0.0000E+00  0.0000E+00
    -29.425  0.3236E-18  0.1215E-18  0.3921E-19  0.2393E-21  0.0000E+00  0.0000E+00  0.0000E+00  0.0000E+00  0.0000E+00
    -29.305  0.0000E+00  0.0000E+00  0.0000E+00  0.0000E+00  0.0000E+00  0.0000E+00  0.0000E+00  0.0000E+00  0.0000E+00
    -29.185  0.0000E+00  0.0000E+00  0.0000E+00  0.0000E+00  0.0000E+00  0.0000E+00  0.0000E+00  0.0000E+00  0.0000E+00
    -29.065  0.0000E+00  0.0000E+00  0.0000E+00  0.0000E+00  0.0000E+00  0.0000E+00  0.0000E+00  0.0000E+00  0.0000E+00
    -28.946  0.0000E+00  0.0000E+00  0.0000E+00  0.0000E+00  0.0000E+00  0.0000E+00  0.0000E+00  0.0000E+00  0.0000E+00
    -28.826  0.0000E+00  0.0000E+00  0.0000E+00  0.0000E+00  0.0000E+00  0.0000E+00  0.0000E+00  0.0000E+00  0.0000E+00
    -28.706  0.0000E+00  0.0000E+00  0.0000E+00  0.0000E+00  0.0000E+00  0.0000E+00  0.0000E+00  0.0000E+00  0.0000E+00
    -28.586  0.0000E+00  0.0000E+00  0.0000E+00  0.0000E+00  0.0000E+00  0.0000E+00  0.0000E+00  0.0000E+00  0.0000E+00
    -28.466  0.0000E+00  0.0000E+00  0.0000E+00  0.0000E+00  0.0000E+00  0.0000E+00  0.0000E+00  0.0000E+00  0.0000E+00
    -28.347  0.0000E+00  0.0000E+00  0.0000E+00  0.0000E+00  0.0000E+00  0.0000E+00  0.0000E+00  0.0000E+00  0.0000E+00
    -28.227  0.0000E+00  0.0000E+00  0.0000E+00  0.0000E+00  0.0000E+00  0.0000E+00  0.0000E+00  0.0000E+00  0.0000E+00
    -28.107  0.0000E+00  0.0000E+00  0.0000E+00  0.0000E+00  0.0000E+00  0.0000E+00  0.0000E+00  0.0000E+00  0.0000E+00
    -27.987  0.0000E+00  0.0000E+00  0.0000E+00  0.0000E+00  0.0000E+00  0.0000E+00  0.0000E+00  0.0000E+00  0.0000E+00
    -27.867  0.0000E+00  0.0000E+00  0.0000E+00  0.0000E+00  0.0000E+00  0.0000E+00  0.0000E+00  0.0000E+00  0.0000E+00
    -27.747  0.0000E+00  0.0000E+00  0.0000E+00  0.0000E+00  0.0000E+00  0.0000E+00  0.0000E+00  0.0000E+00  0.0000E+00
    -27.628  0.0000E+00  0.0000E+00  0.0000E+00  0.0000E+00  0.0000E+00  0.0000E+00  0.0000E+00  0.0000E+00  0.0000E+00
    -27.508  0.0000E+00  0.0000E+00  0.0000E+00  0.0000E+00  0.0000E+00  0.0000E+00  0.0000E+00  0.0000E+00  0.0000E+00
    -27.388  0.0000E+00  0.0000E+00  0.0000E+00  0.0000E+00  0.0000E+00  0.0000E+00  0.0000E+00  0.0000E+00  0.0000E+00
    -27.268  0.0000E+00  0.0000E+00  0.0000E+00  0.0000E+00  0.0000E+00  0.0000E+00  0.0000E+00  0.0000E+00  0.0000E+00
    -27.148  0.0000E+00  0.0000E+00  0.0000E+00  0.0000E+00  0.0000E+00  0.0000E+00  0.0000E+00  0.0000E+00  0.0000E+00
    -27.029  0.0000E+00  0.0000E+00  0.0000E+00  0.0000E+00  0.0000E+00  0.0000E+00  0.0000E+00  0.0000E+00  0.0000E+00
    -26.909  0.0000E+00  0.0000E+00  0.0000E+00  0.0000E+00  0.0000E+00  0.0000E+00  0.0000E+00  0.0000E+00  0.0000E+00
    -26.789  0.0000E+00  0.0000E+00  0.0000E+00  0.0000E+00  0.0000E+00  0.0000E+00  0.0000E+00  0.0000E+00  0.0000E+00
    -26.669  0.3017E-17  0.8041E-18  0.3062E-18  0.1281E-20  0.0000E+00  0.0000E+00  0.0000E+00  0.0000E+00  0.0000E+00
    -26.549  0.6562E-12  0.1749E-12  0.6660E-13  0.2786E-15  0.0000E+00  0.0000E+00  0.0000E+00  0.0000E+00  0.0000E+00
    -26.429  0.8950E-08  0.2385E-08  0.9084E-09  0.3799E-11  0.0000E+00  0.0000E+00  0.0000E+00  0.0000E+00  0.0000E+00
    -26.310  0.7725E-05  0.2059E-05  0.7841E-06  0.3279E-08  0.0000E+00  0.0000E+00  0.0000E+00  0.0000E+00  0.0000E+00
    -26.190  0.4668E-03  0.1244E-03  0.4738E-04  0.1981E-06  0.0000E+00  0.0000E+00  0.0000E+00  0.0000E+00  0.0000E+00
    -26.070  0.2396E-02  0.6386E-03  0.2432E-03  0.1017E-05  0.0000E+00  0.0000E+00  0.0000E+00  0.0000E+00  0.0000E+00
    -25.950  0.1249E-02  0.3329E-03  0.1268E-03  0.5303E-06  0.0000E+00  0.0000E+00  0.0000E+00  0.0000E+00  0.0000E+00
    -25.830  0.6081E-04  0.1620E-04  0.6171E-05  0.2581E-07  0.0000E+00  0.0000E+00  0.0000E+00  0.0000E+00  0.0000E+00
    -25.710  0.2225E-06  0.5929E-07  0.2258E-07  0.9444E-10  0.0000E+00  0.0000E+00  0.0000E+00  0.0000E+00  0.0000E+00
    -25.591  0.5328E-10  0.1420E-10  0.5407E-11  0.2262E-13  0.0000E+00  0.0000E+00  0.0000E+00  0.0000E+00  0.0000E+00
    -25.471  0.7831E-15  0.2087E-15  0.7948E-16  0.3324E-18  0.0000E+00  0.0000E+00  0.0000E+00  0.0000E+00  0.0000E+00
    -25.351  0.0000E+00  0.0000E+00  0.0000E+00  0.0000E+00  0.0000E+00  0.0000E+00  0.0000E+00  0.0000E+00  0.0000E+00
    -25.231  0.0000E+00  0.0000E+00  0.0000E+00  0.0000E+00  0.0000E+00  0.0000E+00  0.0000E+00  0.0000E+00  0.0000E+00
    -25.111  0.0000E+00  0.0000E+00  0.0000E+00  0.0000E+00  0.0000E+00  0.0000E+00  0.0000E+00  0.0000E+00  0.0000E+00
    -24.992  0.0000E+00  0.0000E+00  0.0000E+00  0.0000E+00  0.0000E+00  0.0000E+00  0.0000E+00  0.0000E+00  0.0000E+00
    -24.872  0.0000E+00  0.0000E+00  0.0000E+00  0.0000E+00  0.0000E+00  0.0000E+00  0.0000E+00  0.0000E+00  0.0000E+00
    -24.752  0.0000E+00  0.0000E+00  0.0000E+00  0.0000E+00  0.0000E+00  0.0000E+00  0.0000E+00  0.0000E+00  0.0000E+00
    -24.632  0.0000E+00  0.0000E+00  0.0000E+00  0.0000E+00  0.0000E+00  0.0000E+00  0.0000E+00  0.0000E+00  0.0000E+00
    -24.512  0.0000E+00  0.0000E+00  0.0000E+00  0.0000E+00  0.0000E+00  0.0000E+00  0.0000E+00  0.0000E+00  0.0000E+00
    -24.392  0.0000E+00  0.0000E+00  0.0000E+00  0.0000E+00  0.0000E+00  0.0000E+00  0.0000E+00  0.0000E+00  0.0000E+00
    -24.273  0.0000E+00  0.0000E+00  0.0000E+00  0.0000E+00  0.0000E+00  0.0000E+00  0.0000E+00  0.0000E+00  0.0000E+00
    -24.153  0.0000E+00  0.0000E+00  0.0000E+00  0.0000E+00  0.0000E+00  0.0000E+00  0.0000E+00  0.0000E+00  0.0000E+00
    -24.033  0.0000E+00  0.0000E+00  0.0000E+00  0.0000E+00  0.0000E+00  0.0000E+00  0.0000E+00  0.0000E+00  0.0000E+00
    -23.913  0.0000E+00  0.0000E+00  0.0000E+00  0.0000E+00  0.0000E+00  0.0000E+00  0.0000E+00  0.0000E+00  0.0000E+00
    -23.793  0.0000E+00  0.0000E+00  0.0000E+00  0.0000E+00  0.0000E+00  0.0000E+00  0.0000E+00  0.0000E+00  0.0000E+00
    -23.674  0.0000E+00  0.0000E+00  0.0000E+00  0.0000E+00  0.0000E+00  0.0000E+00  0.0000E+00  0.0000E+00  0.0000E+00
    -23.554  0.0000E+00  0.0000E+00  0.0000E+00  0.0000E+00  0.0000E+00  0.0000E+00  0.0000E+00  0.0000E+00  0.0000E+00
    -23.434  0.0000E+00  0.0000E+00  0.0000E+00  0.0000E+00  0.0000E+00  0.0000E+00  0.0000E+00  0.0000E+00  0.0000E+00
    -23.314  0.0000E+00  0.0000E+00  0.0000E+00  0.0000E+00  0.0000E+00  0.0000E+00  0.0000E+00  0.0000E+00  0.0000E+00
    -23.194  0.0000E+00  0.0000E+00  0.0000E+00  0.0000E+00  0.0000E+00  0.0000E+00  0.0000E+00  0.0000E+00  0.0000E+00
    -23.074  0.0000E+00  0.0000E+00  0.0000E+00  0.0000E+00  0.0000E+00  0.0000E+00  0.0000E+00  0.0000E+00  0.0000E+00
    -22.955  0.0000E+00  0.0000E+00  0.0000E+00  0.0000E+00  0.0000E+00  0.0000E+00  0.0000E+00  0.0000E+00  0.0000E+00
    -22.835  0.0000E+00  0.0000E+00  0.0000E+00  0.0000E+00  0.0000E+00  0.0000E+00  0.0000E+00  0.0000E+00  0.0000E+00
    -22.715  0.0000E+00  0.0000E+00  0.0000E+00  0.0000E+00  0.0000E+00  0.0000E+00  0.0000E+00  0.0000E+00  0.0000E+00
    -22.595  0.0000E+00  0.0000E+00  0.0000E+00  0.0000E+00  0.0000E+00  0.0000E+00  0.0000E+00  0.0000E+00  0.0000E+00
    -22.475  0.0000E+00  0.0000E+00  0.0000E+00  0.0000E+00  0.0000E+00  0.0000E+00  0.0000E+00  0.0000E+00  0.0000E+00
    -22.355  0.0000E+00  0.0000E+00  0.0000E+00  0.0000E+00  0.0000E+00  0.0000E+00  0.0000E+00  0.0000E+00  0.0000E+00
    -22.236  0.0000E+00  0.0000E+00  0.0000E+00  0.0000E+00  0.0000E+00  0.0000E+00  0.0000E+00  0.0000E+00  0.0000E+00
    -22.116  0.0000E+00  0.0000E+00  0.0000E+00  0.0000E+00  0.0000E+00  0.0000E+00  0.0000E+00  0.0000E+00  0.0000E+00
    -21.996  0.0000E+00  0.0000E+00  0.0000E+00  0.0000E+00  0.0000E+00  0.0000E+00  0.0000E+00  0.0000E+00  0.0000E+00
    -21.876  0.0000E+00  0.0000E+00  0.0000E+00  0.0000E+00  0.0000E+00  0.0000E+00  0.0000E+00  0.0000E+00  0.0000E+00
    -21.756  0.0000E+00  0.0000E+00  0.0000E+00  0.0000E+00  0.0000E+00  0.0000E+00  0.0000E+00  0.0000E+00  0.0000E+00
    -21.637  0.0000E+00  0.0000E+00  0.0000E+00  0.0000E+00  0.0000E+00  0.0000E+00  0.0000E+00  0.0000E+00  0.0000E+00
    -21.517  0.0000E+00  0.0000E+00  0.0000E+00  0.0000E+00  0.0000E+00  0.0000E+00  0.0000E+00  0.0000E+00  0.0000E+00
    -21.397  0.0000E+00  0.0000E+00  0.0000E+00  0.0000E+00  0.0000E+00  0.0000E+00  0.0000E+00  0.0000E+00  0.0000E+00
    -21.277  0.1608E-14  0.2354E-15  0.1008E-18  0.1865E-19  0.0000E+00  0.0000E+00  0.0000E+00  0.0000E+00  0.0000E+00
    -21.157  0.2261E-09  0.3311E-10  0.1417E-13  0.2623E-14  0.0000E+00  0.0000E+00  0.0000E+00  0.0000E+00  0.0000E+00
    -21.037  0.1931E-05  0.2828E-06  0.1211E-09  0.2241E-10  0.0000E+00  0.0000E+00  0.0000E+00  0.0000E+00  0.0000E+00
    -20.918  0.1057E-02  0.1547E-03  0.6624E-07  0.1226E-07  0.0000E+00  0.0000E+00  0.0000E+00  0.0000E+00  0.0000E+00
    -20.798  0.4152E-01  0.6080E-02  0.2603E-05  0.4817E-06  0.0000E+00  0.0000E+00  0.0000E+00  0.0000E+00  0.0000E+00
    -20.678  0.1441E+00  0.2109E-01  0.9031E-05  0.1671E-05  0.0000E+00  0.0000E+00  0.0000E+00  0.0000E+00  0.0000E+00
    -20.558  0.5111E-01  0.7484E-02  0.3204E-05  0.5930E-06  0.0000E+00  0.0000E+00  0.0000E+00  0.0000E+00  0.0000E+00
    -20.438  0.1634E-02  0.2392E-03  0.1024E-06  0.1895E-07  0.0000E+00  0.0000E+00  0.0000E+00  0.0000E+00  0.0000E+00
    -20.319  0.3807E-05  0.5575E-06  0.2387E-09  0.4417E-10  0.0000E+00  0.0000E+00  0.0000E+00  0.0000E+00  0.0000E+00
    -20.199  0.5723E-09  0.8380E-10  0.3588E-13  0.6640E-14  0.0000E+00  0.0000E+00  0.0000E+00  0.0000E+00  0.0000E+00
    -20.079  0.5262E-14  0.7706E-15  0.3299E-18  0.6105E-19  0.0000E+00  0.0000E+00  0.0000E+00  0.0000E+00  0.0000E+00
    -19.959  0.0000E+00  0.0000E+00  0.0000E+00  0.0000E+00  0.0000E+00  0.0000E+00  0.0000E+00  0.0000E+00  0.0000E+00
    -19.839  0.0000E+00  0.0000E+00  0.0000E+00  0.0000E+00  0.0000E+00  0.0000E+00  0.0000E+00  0.0000E+00  0.0000E+00
    -19.719  0.0000E+00  0.0000E+00  0.0000E+00  0.0000E+00  0.0000E+00  0.0000E+00  0.0000E+00  0.0000E+00  0.0000E+00
    -19.600  0.0000E+00  0.0000E+00  0.0000E+00  0.0000E+00  0.0000E+00  0.0000E+00  0.0000E+00  0.0000E+00  0.0000E+00
    -19.480  0.0000E+00  0.0000E+00  0.0000E+00  0.0000E+00  0.0000E+00  0.0000E+00  0.0000E+00  0.0000E+00  0.0000E+00
    -19.360  0.0000E+00  0.0000E+00  0.0000E+00  0.0000E+00  0.0000E+00  0.0000E+00  0.0000E+00  0.0000E+00  0.0000E+00
    -19.240  0.0000E+00  0.0000E+00  0.0000E+00  0.0000E+00  0.0000E+00  0.0000E+00  0.0000E+00  0.0000E+00  0.0000E+00
    -19.120  0.1902E-11  0.9335E-13  0.2469E-16  0.1053E-16  0.0000E+00  0.0000E+00  0.0000E+00  0.0000E+00  0.0000E+00
    -19.000  0.9014E-07  0.4423E-08  0.1170E-11  0.4991E-12  0.0000E+00  0.0000E+00  0.0000E+00  0.0000E+00  0.0000E+00
    -18.881  0.2636E-03  0.1294E-04  0.3422E-08  0.1460E-08  0.0000E+00  0.0000E+00  0.0000E+00  0.0000E+00  0.0000E+00
    -18.761  0.5111E-01  0.2508E-02  0.6633E-06  0.2830E-06  0.0000E+00  0.0000E+00  0.0000E+00  0.0000E+00  0.0000E+00
    -18.641  0.7638E+00  0.3748E-01  0.9913E-05  0.4229E-05  0.0000E+00  0.0000E+00  0.0000E+00  0.0000E+00  0.0000E+00
    -18.521  0.1093E+01  0.5364E-01  0.1419E-04  0.6052E-05  0.0000E+00  0.0000E+00  0.0000E+00  0.0000E+00  0.0000E+00
    -18.401  0.1570E+00  0.7704E-02  0.2038E-05  0.8693E-06  0.0000E+00  0.0000E+00  0.0000E+00  0.0000E+00  0.0000E+00
    -18.282  0.1861E-02  0.9131E-04  0.2415E-07  0.1030E-07  0.0000E+00  0.0000E+00  0.0000E+00  0.0000E+00  0.0000E+00
    -18.162  0.1517E-05  0.7442E-07  0.1969E-10  0.8397E-11  0.0000E+00  0.0000E+00  0.0000E+00  0.0000E+00  0.0000E+00
    -18.042  0.9781E-10  0.5085E-11  0.4250E-09  0.9834E-12  0.0000E+00  0.0000E+00  0.0000E+00  0.0000E+00  0.0000E+00
    -17.922  0.5440E-07  0.3439E-08  0.1144E-05  0.2646E-08  0.0000E+00  0.0000E+00  0.0000E+00  0.0000E+00  0.0000E+00
    -17.802  0.9737E-05  0.6155E-06  0.2048E-03  0.4736E-06  0.0000E+00  0.0000E+00  0.0000E+00  0.0000E+00  0.0000E+00
    -17.682  0.1352E-03  0.8545E-05  0.2843E-02  0.6575E-05  0.0000E+00  0.0000E+00  0.0000E+00  0.0000E+00  0.0000E+00
    -17.563  0.1807E-03  0.1142E-04  0.3799E-02  0.8788E-05  0.0000E+00  0.0000E+00  0.0000E+00  0.0000E+00  0.0000E+00
    -17.443  0.2416E-04  0.1527E-05  0.5080E-03  0.1175E-05  0.0000E+00  0.0000E+00  0.0000E+00  0.0000E+00  0.0000E+00
    -17.323  0.2647E-06  0.1673E-07  0.5567E-05  0.1288E-07  0.0000E+00  0.0000E+00  0.0000E+00  0.0000E+00  0.0000E+00
    -17.203  0.1987E-09  0.1256E-10  0.4179E-08  0.9666E-11  0.0000E+00  0.0000E+00  0.0000E+00  0.0000E+00  0.0000E+00
    -17.083  0.9347E-14  0.5909E-15  0.1966E-12  0.4547E-15  0.0000E+00  0.0000E+00  0.0000E+00  0.0000E+00  0.0000E+00
    -16.964  0.1404E-14  0.2236E-17  0.8915E-19  0.1337E-22  0.0000E+00  0.0000E+00  0.0000E+00  0.0000E+00  0.0000E+00
    -16.844  0.3417E-09  0.5441E-12  0.2169E-13  0.3254E-17  0.0000E+00  0.0000E+00  0.0000E+00  0.0000E+00  0.0000E+00
    -16.724  0.5300E-05  0.8440E-08  0.3365E-09  0.5048E-13  0.0000E+00  0.0000E+00  0.0000E+00  0.0000E+00  0.0000E+00
    -16.604  0.5188E-02  0.8261E-05  0.3293E-06  0.4941E-10  0.0000E+00  0.0000E+00  0.0000E+00  0.0000E+00  0.0000E+00
    -16.484  0.3532E+00  0.5624E-03  0.2242E-04  0.3363E-08  0.0000E+00  0.0000E+00  0.0000E+00  0.0000E+00  0.0000E+00
    -16.364  0.2021E+01  0.3218E-02  0.1283E-03  0.1925E-07  0.0000E+00  0.0000E+00  0.0000E+00  0.0000E+00  0.0000E+00
    -16.245  0.1170E+01  0.1864E-02  0.7429E-04  0.1115E-07  0.0000E+00  0.0000E+00  0.0000E+00  0.0000E+00  0.0000E+00
    -16.125  0.6388E-01  0.1017E-03  0.4055E-05  0.6083E-09  0.0000E+00  0.0000E+00  0.0000E+00  0.0000E+00  0.0000E+00
    -16.005  0.2644E-03  0.4210E-06  0.1678E-07  0.2518E-11  0.0000E+00  0.0000E+00  0.0000E+00  0.0000E+00  0.0000E+00
    -15.885  0.7192E-07  0.1145E-09  0.4566E-11  0.6850E-15  0.0000E+00  0.0000E+00  0.0000E+00  0.0000E+00  0.0000E+00
    -15.765  0.1203E-11  0.1916E-14  0.7639E-16  0.1146E-19  0.0000E+00  0.0000E+00  0.0000E+00  0.0000E+00  0.0000E+00
    -15.646  0.0000E+00  0.0000E+00  0.0000E+00  0.0000E+00  0.0000E+00  0.0000E+00  0.0000E+00  0.0000E+00  0.0000E+00
    -15.526  0.0000E+00  0.0000E+00  0.0000E+00  0.0000E+00  0.0000E+00  0.0000E+00  0.0000E+00  0.0000E+00  0.0000E+00
    -15.406  0.3714E-16  0.3449E-17  0.3238E-16  0.8593E-19  0.0000E+00  0.0000E+00  0.0000E+00  0.0000E+00  0.0000E+00
    -15.286  0.9486E-11  0.8809E-12  0.8271E-11  0.2195E-13  0.0000E+00  0.0000E+00  0.0000E+00  0.0000E+00  0.0000E+00
    -15.166  0.1405E-06  0.1305E-07  0.1225E-06  0.3252E-09  0.0000E+00  0.0000E+00  0.0000E+00  0.0000E+00  0.0000E+00
    -15.046  0.1315E-03  0.1221E-04  0.1146E-03  0.3042E-06  0.0000E+00  0.0000E+00  0.0000E+00  0.0000E+00  0.0000E+00
    -14.927  0.8576E-02  0.7964E-03  0.7478E-02  0.1984E-04  0.0000E+00  0.0000E+00  0.0000E+00  0.0000E+00  0.0000E+00
    -14.807  0.4721E-01  0.4384E-02  0.4116E-01  0.1092E-03  0.0000E+00  0.0000E+00  0.0000E+00  0.0000E+00  0.0000E+00
    -14.687  0.2633E-01  0.2445E-02  0.2296E-01  0.6092E-04  0.0000E+00  0.0000E+00  0.0000E+00  0.0000E+00  0.0000E+00
    -14.567  0.1379E-02  0.1281E-03  0.1203E-02  0.3191E-05  0.0000E+00  0.0000E+00  0.0000E+00  0.0000E+00  0.0000E+00
    -14.447  0.7365E-05  0.1080E-05  0.4767E-05  0.1266E-07  0.0000E+00  0.0000E+00  0.0000E+00  0.0000E+00  0.0000E+00
    -14.327  0.1536E-02  0.4621E-03  0.3076E-05  0.2018E-07  0.0000E+00  0.0000E+00  0.0000E+00  0.0000E+00  0.0000E+00
    -14.208  0.8711E-01  0.2620E-01  0.1744E-03  0.1144E-05  0.0000E+00  0.0000E+00  0.0000E+00  0.0000E+00  0.0000E+00
    -14.088  0.4221E+00  0.1270E+00  0.8450E-03  0.5544E-05  0.0000E+00  0.0000E+00  0.0000E+00  0.0000E+00  0.0000E+00
    -13.968  0.2080E+00  0.6257E-01  0.4164E-03  0.2732E-05  0.0000E+00  0.0000E+00  0.0000E+00  0.0000E+00  0.0000E+00
    -13.848  0.9524E-02  0.2865E-02  0.1907E-04  0.1251E-06  0.0000E+00  0.0000E+00  0.0000E+00  0.0000E+00  0.0000E+00
    -13.728  0.3262E-04  0.9814E-05  0.6531E-07  0.4285E-09  0.0000E+00  0.0000E+00  0.0000E+00  0.0000E+00  0.0000E+00
    -13.609  0.2547E-06  0.9295E-07  0.1980E-10  0.1353E-10  0.0000E+00  0.0000E+00  0.0000E+00  0.0000E+00  0.0000E+00
    -13.489  0.1915E-03  0.7025E-04  0.4021E-08  0.1040E-07  0.0000E+00  0.0000E+00  0.0000E+00  0.0000E+00  0.0000E+00
    -13.369  0.1044E-01  0.3829E-02  0.2191E-06  0.5668E-06  0.0000E+00  0.0000E+00  0.0000E+00  0.0000E+00  0.0000E+00
    -13.249  0.4878E-01  0.1789E-01  0.1024E-05  0.2649E-05  0.0000E+00  0.0000E+00  0.0000E+00  0.0000E+00  0.0000E+00
    -13.129  0.2321E-01  0.8512E-02  0.4872E-06  0.1260E-05  0.0000E+00  0.0000E+00  0.0000E+00  0.0000E+00  0.0000E+00
    -13.009  0.1022E-02  0.3750E-03  0.2146E-07  0.5552E-07  0.0000E+00  0.0000E+00  0.0000E+00  0.0000E+00  0.0000E+00