   16   16   10    1
  0.6432613E+02  0.7753300E-09  0.1181980E-08  0.1123080E-08  0.2000000E-15
  1.000000000000000E-004
  CAR 
 QM9                                     
     48      1     36
 
  0.0000000E+00  0.0000000E+00  0.0000000E+00  0.1000000E+01
      1        -30.067605   1.000000
      2        -26.104330   1.000000
      3        -20.732514   1.000000
      4        -18.622089   1.000000
      5        -17.667126   1.000000
      6        -16.393297   1.000000
      7        -14.837603   1.000000
      8        -14.125177   1.000000
      9        -13.288280   1.000000
     10        -11.979365   1.000000
     11        -11.640207   1.000000
     12        -10.714571   1.000000
     13        -10.563081   1.000000
     14         -9.692498   1.000000
     15         -9.656675   1.000000
     16         -9.378119   1.000000
     17         -9.014416   1.000000
     18         -8.601920   1.000000
     19         -8.475614   1.000000
     20         -8.088013   1.000000
     21         -7.606492   1.000000
     22         -7.569034   1.000000
     23         -5.403788   1.000000
     24         -4.854827   1.000000
     25         -0.480559   0.000000
     26         -0.320163   0.000000
     27         -0.226798   0.000000
     28          0.321015   0.000000
     29          0.678163   0.000000
     30          0.844976   0.000000
     31          1.107999   0.000000
     32          1.571831   0.000000
     33          1.801393   0.000000
     34          1.867887   0.000000
     35          2.111637   0.000000
     36          2.610858   0.000000
