       N       E                     dE             d eps       ncg     rms          rms(c)
RMM:   1     0.801149652759E+03    0.80115E+03   -0.10735E+04    36   0.782E+02
RMM:   2     0.402776501016E+03   -0.39837E+03   -0.45480E+03    36   0.180E+02
RMM:   3     0.258968272792E+03   -0.14381E+03   -0.26448E+03    36   0.138E+02
RMM:   4     0.824929534205E+02   -0.17648E+03   -0.17977E+03    36   0.143E+02
RMM:   5     0.293667565497E+01   -0.79556E+02   -0.75039E+02    36   0.107E+02
RMM:   6    -0.664948692124E+02   -0.69432E+02   -0.57605E+02    36   0.823E+01
RMM:   7    -0.941068236292E+02   -0.27612E+02   -0.24382E+02    36   0.545E+01
RMM:   8    -0.104906743461E+03   -0.10800E+02   -0.85666E+01    36   0.324E+01
RMM:   9    -0.107843546399E+03   -0.29368E+01   -0.27509E+01    36   0.180E+01
RMM:  10    -0.108876371143E+03   -0.10328E+01   -0.93647E+00    36   0.101E+01
RMM:  11    -0.109237889875E+03   -0.36152E+00   -0.34327E+00    36   0.599E+00
RMM:  12    -0.109378643673E+03   -0.14075E+00   -0.13181E+00    36   0.357E+00
RMM:  13    -0.109432906790E+03   -0.54263E-01   -0.53076E-01    36   0.221E+00
RMM:  14    -0.109456202430E+03   -0.23296E-01   -0.21923E-01    36   0.138E+00
RMM:  15    -0.109471242480E+03   -0.15040E-01   -0.14928E-01    78   0.885E-01
RMM:  16    -0.109473556332E+03   -0.23139E-02   -0.22932E-02    78   0.335E-01
RMM:  17    -0.109473708996E+03   -0.15266E-03   -0.15211E-03    75   0.121E-01
RMM:  18    -0.109473729932E+03   -0.20935E-04   -0.20920E-04    63   0.412E-02
RMM:  19    -0.109473732669E+03   -0.27372E-05   -0.26850E-05    51   0.162E-02
RMM:  20    -0.109473733002E+03   -0.33267E-06   -0.35259E-06    44   0.840E-03    0.166E+01
RMM:  21    -0.101691296654E+03    0.77824E+01   -0.13742E+01   120   0.135E+01    0.895E+00
RMM:  22    -0.998610991113E+02    0.18302E+01   -0.30989E+00   120   0.598E+00    0.388E+00
RMM:  23    -0.995768483048E+02    0.28425E+00   -0.39339E-01   120   0.226E+00    0.112E+00
RMM:  24    -0.995426612212E+02    0.34187E-01   -0.24092E-02   107   0.720E-01    0.326E-01
RMM:  25    -0.995362148888E+02    0.64463E-02   -0.45416E-03    88   0.269E-01    0.176E-01
RMM:  26    -0.995357179585E+02    0.49693E-03   -0.10129E-02    96   0.318E-01    0.934E-02
RMM:  27    -0.995405842342E+02   -0.48663E-02   -0.17956E-03    80   0.147E-01    0.499E-02
RMM:  28    -0.995467507958E+02   -0.61666E-02   -0.76756E-04    73   0.971E-02    0.277E-02
RMM:  29    -0.995509962236E+02   -0.42454E-02   -0.52944E-04    70   0.737E-02    0.168E-02
RMM:  30    -0.995534795009E+02   -0.24833E-02   -0.42209E-04    72   0.591E-02    0.957E-03
RMM:  31    -0.995540670043E+02   -0.58750E-03   -0.11348E-04    64   0.331E-02    0.620E-03
RMM:  32    -0.995541979524E+02   -0.13095E-03   -0.34236E-05    56   0.161E-02    0.259E-03
RMM:  33    -0.995543072596E+02   -0.10931E-03   -0.18925E-05    49   0.123E-02    0.172E-03
RMM:  34    -0.995543355136E+02   -0.28254E-04   -0.44686E-06    41   0.650E-03    0.899E-04
RMM:  35    -0.995543604270E+02   -0.24913E-04   -0.44232E-06    43   0.583E-03    0.586E-04
RMM:  36    -0.995543624424E+02   -0.20154E-05   -0.96701E-07    33   0.348E-03
   1 F= -.99554362E+02 E0= -.99554362E+02  d E =-.995544E+02
       N       E                     dE             d eps       ncg     rms          rms(c)
RMM:   1    -0.995545892827E+02   -0.22886E-03   -0.43503E+00    72   0.110E+01    0.510E-01
RMM:   2    -0.995672145116E+02   -0.12625E-01   -0.19625E-01    72   0.307E+00    0.246E-01
RMM:   3    -0.995693641798E+02   -0.21497E-02   -0.28477E-02    75   0.103E+00    0.176E-01
RMM:   4    -0.995689538917E+02    0.41029E-03   -0.35522E-03    73   0.335E-01    0.937E-02
RMM:   5    -0.995688450201E+02    0.10887E-03   -0.17325E-03    72   0.192E-01    0.465E-02
RMM:   6    -0.995688849235E+02   -0.39903E-04   -0.61751E-04    72   0.113E-01    0.205E-02
RMM:   7    -0.995689305927E+02   -0.45669E-04   -0.13033E-04    73   0.507E-02    0.211E-02
RMM:   8    -0.995689702951E+02   -0.39702E-04   -0.10881E-04    68   0.443E-02    0.961E-03
RMM:   9    -0.995690409387E+02   -0.70644E-04   -0.20877E-05    51   0.192E-02    0.384E-03
RMM:  10    -0.995691014633E+02   -0.60525E-04   -0.85810E-06    48   0.105E-02    0.220E-03
RMM:  11    -0.995691643295E+02   -0.62866E-04   -0.10305E-05    48   0.944E-03    0.143E-03
RMM:  12    -0.995691879995E+02   -0.23670E-04   -0.42602E-06    41   0.611E-03    0.102E-03
RMM:  13    -0.995691965032E+02   -0.85037E-05   -0.19628E-06    39   0.448E-03
   2 F= -.99569197E+02 E0= -.99569197E+02  d E =-.148341E-01
       N       E                     dE             d eps       ncg     rms          rms(c)
RMM:   1    -0.995704431860E+02   -0.12552E-02   -0.34162E-01    72   0.308E+00    0.135E-01
RMM:   2    -0.995715344401E+02   -0.10913E-02   -0.15330E-02    72   0.867E-01    0.699E-02
RMM:   3    -0.995717085397E+02   -0.17410E-03   -0.22171E-03    75   0.291E-01    0.473E-02
RMM:   4    -0.995716811791E+02    0.27361E-04   -0.27919E-04    73   0.942E-02    0.219E-02
RMM:   5    -0.995716683622E+02    0.12817E-04   -0.10713E-04    72   0.501E-02    0.105E-02
RMM:   6    -0.995716724147E+02   -0.40524E-05   -0.41416E-05    60   0.287E-02
   3 F= -.99571672E+02 E0= -.99571672E+02  d E =-.173100E-01
       N       E                     dE             d eps       ncg     rms          rms(c)
RMM:   1    -0.995741448084E+02   -0.24764E-02   -0.55527E-01    72   0.411E+00    0.165E-01
RMM:   2    -0.995760936465E+02   -0.19488E-02   -0.25402E-02    72   0.106E+00    0.976E-02
RMM:   3    -0.995764190401E+02   -0.32539E-03   -0.39877E-03    74   0.356E-01    0.847E-02
RMM:   4    -0.995763785783E+02    0.40462E-04   -0.51710E-04    73   0.126E-01    0.502E-02
RMM:   5    -0.995764050475E+02   -0.26469E-04   -0.39629E-04    72   0.849E-02    0.183E-02
RMM:   6    -0.995764032164E+02    0.18311E-05   -0.87194E-05    70   0.453E-02
   4 F= -.99576403E+02 E0= -.99576403E+02  d E =-.473080E-02
       N       E                     dE             d eps       ncg     rms          rms(c)
RMM:   1    -0.995765153926E+02   -0.11035E-03   -0.33617E-02    72   0.101E+00    0.401E-02
RMM:   2    -0.995766342831E+02   -0.11889E-03   -0.15192E-03    72   0.260E-01    0.262E-02
RMM:   3    -0.995766545202E+02   -0.20237E-04   -0.23827E-04    74   0.883E-02    0.209E-02
RMM:   4    -0.995766509620E+02    0.35583E-05   -0.41434E-05    62   0.348E-02    0.834E-03
RMM:   5    -0.995766521907E+02   -0.12288E-05   -0.12775E-05    48   0.179E-02    0.500E-03
RMM:   6    -0.995766531501E+02   -0.95931E-06   -0.31392E-06    48   0.867E-03
   5 F= -.99576653E+02 E0= -.99576653E+02  d E =-.498074E-02
       N       E                     dE             d eps       ncg     rms          rms(c)
RMM:   1    -0.995781259655E+02   -0.14738E-02   -0.18385E-01    72   0.236E+00    0.102E-01
RMM:   2    -0.995787948065E+02   -0.66884E-03   -0.85697E-03    72   0.569E-01    0.638E-02
RMM:   3    -0.995788809657E+02   -0.86159E-04   -0.14631E-03    74   0.197E-01    0.527E-02
RMM:   4    -0.995788565949E+02    0.24371E-04   -0.19234E-04    73   0.737E-02    0.301E-02
RMM:   5    -0.995788578413E+02   -0.12463E-05   -0.15132E-04    71   0.505E-02    0.101E-02
RMM:   6    -0.995788572322E+02    0.60906E-06   -0.30959E-05    58   0.260E-02
   6 F= -.99578857E+02 E0= -.99578857E+02  d E =-.220408E-02
       N       E                     dE             d eps       ncg     rms          rms(c)
RMM:   1    -0.995789279845E+02   -0.70143E-04   -0.13219E-02    72   0.630E-01    0.275E-02
RMM:   2    -0.995789768704E+02   -0.48886E-04   -0.61694E-04    72   0.153E-01    0.183E-02
RMM:   3    -0.995789827650E+02   -0.58945E-05   -0.10636E-04    73   0.535E-02    0.137E-02
RMM:   4    -0.995789807578E+02    0.20071E-05   -0.19690E-05    51   0.229E-02    0.568E-03
RMM:   5    -0.995789818189E+02   -0.10611E-05   -0.61638E-06    48   0.119E-02    0.356E-03
RMM:   6    -0.995789827343E+02   -0.91533E-06   -0.17827E-06    47   0.659E-03
   7 F= -.99578983E+02 E0= -.99578983E+02  d E =-.232958E-02
       N       E                     dE             d eps       ncg     rms          rms(c)
RMM:   1    -0.995793574951E+02   -0.37568E-03   -0.47372E-02    72   0.119E+00    0.487E-02
RMM:   2    -0.995795045942E+02   -0.14710E-03   -0.20342E-03    72   0.290E-01    0.301E-02
RMM:   3    -0.995795243350E+02   -0.19741E-04   -0.33880E-04    73   0.993E-02    0.204E-02
RMM:   4    -0.995795216306E+02    0.27043E-05   -0.50998E-05    70   0.392E-02    0.881E-03
RMM:   5    -0.995795228832E+02   -0.12526E-05   -0.19376E-05    50   0.216E-02    0.405E-03
RMM:   6    -0.995795237316E+02   -0.84841E-06   -0.38218E-06    47   0.937E-03
   8 F= -.99579524E+02 E0= -.99579524E+02  d E =-.540997E-03
       N       E                     dE             d eps       ncg     rms          rms(c)
RMM:   1    -0.995795247282E+02   -0.18450E-05   -0.25547E-05    55   0.281E-02    0.127E-03
RMM:   2    -0.995795251222E+02   -0.39404E-06   -0.18847E-06    47   0.782E-03    0.816E-04
RMM:   3    -0.995795253990E+02   -0.27680E-06   -0.22968E-07    33   0.358E-03    0.585E-04
RMM:   4    -0.995795257733E+02   -0.37424E-06   -0.53824E-08    26   0.287E-03    0.177E-04
RMM:   5    -0.995795260165E+02   -0.24323E-06    0.00000E+00    22   0.281E-03    0.712E-05
RMM:   6    -0.995795262686E+02   -0.25214E-06   -0.70999E-08    24   0.285E-03
   9 F= -.99579526E+02 E0= -.99579526E+02  d E =-.543534E-03
       N       E                     dE             d eps       ncg     rms          rms(c)
RMM:   1    -0.995796869455E+02   -0.16093E-03   -0.25177E-02    72   0.873E-01    0.358E-02
RMM:   2    -0.995797792765E+02   -0.92331E-04   -0.11884E-03    72   0.228E-01    0.209E-02
RMM:   3    -0.995797929991E+02   -0.13723E-04   -0.18022E-04    72   0.775E-02    0.134E-02
RMM:   4    -0.995797938429E+02   -0.84382E-06   -0.33506E-05    55   0.307E-02    0.552E-03
RMM:   5    -0.995797946772E+02   -0.83432E-06   -0.77125E-06    48   0.142E-02    0.257E-03
RMM:   6    -0.995797950719E+02   -0.39463E-06   -0.17737E-06    46   0.681E-03
  10 F= -.99579795E+02 E0= -.99579795E+02  d E =-.268803E-03
