PROCAR lm decomposed
# of k-points:    1         # of bands:   36         # of ions:   16

 k-point     1 :    0.00000000 0.00000000 0.00000000     weight = 1.00000000

band     1 # energy  -30.06760516 # occ.  2.00000000
 
ion      s     py     pz     px    dxy    dyz    dz2    dxz  x2-y2    tot
    1  0.000  0.000  0.000  0.000  0.000  0.000  0.000  0.000  0.000  0.000
    2  0.000  0.000  0.000  0.000  0.000  0.000  0.000  0.000  0.000  0.000
    3  0.002  0.000  0.000  0.000  0.000  0.000  0.000  0.000  0.000  0.003
    4  0.046  0.005  0.024  0.000  0.000  0.000  0.000  0.000  0.000  0.075
    5  0.001  0.000  0.000  0.000  0.000  0.000  0.000  0.000  0.000  0.001
    6  0.000  0.000  0.000  0.000  0.000  0.000  0.000  0.000  0.000  0.000
    7  0.000  0.000  0.000  0.000  0.000  0.000  0.000  0.000  0.000  0.000
    8  0.784  0.006  0.019  0.000  0.000  0.000  0.000  0.000  0.000  0.810
    9  0.000  0.000  0.000  0.000  0.000  0.000  0.000  0.000  0.000  0.000
   10  0.000  0.000  0.000  0.000  0.000  0.000  0.000  0.000  0.000  0.000
   11  0.000  0.000  0.000  0.000  0.000  0.000  0.000  0.000  0.000  0.000
   12  0.000  0.000  0.000  0.000  0.000  0.000  0.000  0.000  0.000  0.001
   13  0.000  0.000  0.000  0.000  0.000  0.000  0.000  0.000  0.000  0.000
   14  0.000  0.000  0.000  0.000  0.000  0.000  0.000  0.000  0.000  0.000
   15  0.000  0.000  0.000  0.000  0.000  0.000  0.000  0.000  0.000  0.000
   16  0.002  0.000  0.000  0.000  0.000  0.000  0.000  0.000  0.000  0.002
tot    0.836  0.012  0.044  0.000  0.000  0.000  0.000  0.000  0.000  0.891
 
band     2 # energy  -26.10433016 # occ.  2.00000000
 
ion      s     py     pz     px    dxy    dyz    dz2    dxz  x2-y2    tot
    1  0.000  0.000  0.000  0.000  0.000  0.000  0.000  0.000  0.000  0.000
    2  0.003  0.000  0.001  0.000  0.000  0.000  0.000  0.000  0.000  0.004
    3  0.080  0.007  0.026  0.000  0.000  0.000  0.000  0.000  0.000  0.113
    4  0.001  0.002  0.000  0.000  0.000  0.000  0.000  0.000  0.000  0.004
    5  0.000  0.000  0.000  0.000  0.000  0.000  0.000  0.000  0.000  0.000
    6  0.000  0.000  0.000  0.000  0.000  0.000  0.000  0.000  0.000  0.000
    7  0.000  0.000  0.000  0.000  0.000  0.000  0.000  0.000  0.000  0.000
    8  0.007  0.000  0.000  0.000  0.000  0.000  0.000  0.000  0.000  0.008
    9  0.000  0.000  0.000  0.000  0.000  0.000  0.000  0.000  0.000  0.000
   10  0.000  0.000  0.000  0.000  0.000  0.000  0.000  0.000  0.000  0.000
   11  0.000  0.000  0.000  0.000  0.000  0.000  0.000  0.000  0.000  0.000
   12  0.077  0.006  0.011  0.000  0.000  0.000  0.000  0.000  0.000  0.094
   13  0.000  0.000  0.000  0.000  0.000  0.000  0.000  0.000  0.000  0.000
   14  0.000  0.000  0.000  0.000  0.000  0.000  0.000  0.000  0.000  0.000
   15  0.000  0.000  0.000  0.000  0.000  0.000  0.000  0.000  0.000  0.000
   16  0.644  0.036  0.003  0.000  0.000  0.000  0.000  0.000  0.000  0.682
tot    0.813  0.051  0.041  0.000  0.000  0.000  0.000  0.000  0.000  0.905
 
band     3 # energy  -20.73251351 # occ.  2.00000000
 
ion      s     py     pz     px    dxy    dyz    dz2    dxz  x2-y2    tot
    1  0.014  0.002  0.000  0.000  0.000  0.000  0.000  0.000  0.000  0.016
    2  0.113  0.006  0.000  0.000  0.000  0.000  0.000  0.000  0.000  0.120
    3  0.070  0.004  0.018  0.000  0.000  0.000  0.000  0.000  0.000  0.092
    4  0.082  0.003  0.014  0.000  0.000  0.000  0.000  0.000  0.000  0.099
    5  0.093  0.010  0.000  0.000  0.000  0.000  0.000  0.000  0.000  0.103
    6  0.086  0.002  0.007  0.000  0.000  0.000  0.000  0.000  0.000  0.095
    7  0.094  0.001  0.007  0.000  0.000  0.000  0.000  0.000  0.000  0.102
    8  0.009  0.000  0.003  0.000  0.000  0.000  0.000  0.000  0.000  0.012
    9  0.001  0.000  0.000  0.000  0.000  0.000  0.000  0.000  0.000  0.001
   10  0.001  0.000  0.000  0.000  0.000  0.000  0.000  0.000  0.000  0.001
   11  0.001  0.000  0.000  0.000  0.000  0.000  0.000  0.000  0.000  0.001
   12  0.007  0.001  0.001  0.000  0.000  0.000  0.000  0.000  0.000  0.008
   13  0.004  0.000  0.000  0.000  0.000  0.000  0.000  0.000  0.000  0.005
   14  0.004  0.000  0.000  0.000  0.000  0.000  0.000  0.000  0.000  0.004
   15  0.005  0.000  0.000  0.000  0.000  0.000  0.000  0.000  0.000  0.005
   16  0.021  0.001  0.005  0.000  0.000  0.000  0.000  0.000  0.000  0.026
tot    0.605  0.031  0.055  0.000  0.000  0.000  0.000  0.000  0.000  0.691
 
band     4 # energy  -18.62208860 # occ.  2.00000000
 
ion      s     py     pz     px    dxy    dyz    dz2    dxz  x2-y2    tot
    1  0.124  0.006  0.000  0.000  0.000  0.000  0.000  0.000  0.000  0.130
    2  0.156  0.004  0.000  0.000  0.000  0.000  0.000  0.000  0.000  0.160
    3  0.009  0.017  0.007  0.000  0.000  0.000  0.000  0.000  0.000  0.033
    4  0.055  0.003  0.010  0.000  0.000  0.000  0.000  0.000  0.000  0.068
    5  0.133  0.004  0.000  0.000  0.000  0.000  0.000  0.000  0.000  0.136
    6  0.041  0.004  0.006  0.000  0.000  0.000  0.000  0.000  0.000  0.051
    7  0.015  0.013  0.003  0.000  0.000  0.000  0.000  0.000  0.000  0.030
    8  0.009  0.000  0.007  0.000  0.000  0.000  0.000  0.000  0.000  0.016
    9  0.013  0.000  0.000  0.001  0.000  0.000  0.000  0.000  0.000  0.015
   10  0.013  0.000  0.000  0.001  0.000  0.000  0.000  0.000  0.000  0.015
   11  0.014  0.000  0.001  0.000  0.000  0.000  0.000  0.000  0.000  0.015
   12  0.004  0.000  0.000  0.000  0.000  0.000  0.000  0.000  0.000  0.005
   13  0.012  0.001  0.000  0.000  0.000  0.000  0.000  0.000  0.000  0.013
   14  0.004  0.000  0.000  0.000  0.000  0.000  0.000  0.000  0.000  0.004
   15  0.002  0.000  0.000  0.000  0.000  0.000  0.000  0.000  0.000  0.003
   16  0.002  0.002  0.007  0.000  0.000  0.000  0.000  0.000  0.000  0.011
tot    0.606  0.054  0.043  0.002  0.000  0.000  0.000  0.000  0.000  0.704
 
band     5 # energy  -17.66712556 # occ.  2.00000000
 
ion      s     py     pz     px    dxy    dyz    dz2    dxz  x2-y2    tot
    1  0.000  0.000  0.000  0.000  0.000  0.000  0.000  0.000  0.000  0.000
    2  0.000  0.000  0.024  0.000  0.000  0.000  0.000  0.000  0.000  0.025
    3  0.117  0.013  0.002  0.000  0.000  0.000  0.000  0.000  0.000  0.132
    4  0.117  0.014  0.000  0.000  0.000  0.000  0.000  0.000  0.000  0.131
    5  0.001  0.000  0.024  0.000  0.000  0.000  0.000  0.000  0.000  0.025
    6  0.145  0.006  0.000  0.000  0.000  0.000  0.000  0.000  0.000  0.151
    7  0.131  0.007  0.000  0.000  0.000  0.000  0.000  0.000  0.000  0.139
    8  0.017  0.007  0.017  0.000  0.000  0.000  0.000  0.000  0.000  0.041
    9  0.000  0.000  0.000  0.000  0.000  0.000  0.000  0.000  0.000  0.000
   10  0.000  0.000  0.000  0.000  0.000  0.000  0.000  0.000  0.000  0.000
   11  0.000  0.000  0.000  0.000  0.000  0.000  0.000  0.000  0.000  0.000
   12  0.013  0.002  0.001  0.000  0.000  0.000  0.000  0.000  0.000  0.016
   13  0.000  0.000  0.000  0.000  0.000  0.000  0.000  0.000  0.000  0.000
   14  0.018  0.001  0.001  0.000  0.000  0.000  0.000  0.000  0.000  0.020
   15  0.017  0.001  0.001  0.000  0.000  0.000  0.000  0.000  0.000  0.019
   16  0.023  0.000  0.023  0.000  0.000  0.000  0.000  0.000  0.000  0.047
tot    0.601  0.051  0.094  0.000  0.000  0.000  0.000  0.000  0.000  0.746
 
band     6 # energy  -16.39329687 # occ.  2.00000000
 
ion      s     py     pz     px    dxy    dyz    dz2    dxz  x2-y2    tot
    1  0.217  0.000  0.000  0.000  0.000  0.000  0.000  0.000  0.000  0.217
    2  0.003  0.051  0.000  0.000  0.000  0.000  0.000  0.000  0.000  0.054
    3  0.046  0.002  0.002  0.000  0.000  0.000  0.000  0.000  0.000  0.050
    4  0.003  0.034  0.007  0.000  0.000  0.000  0.000  0.000  0.000  0.043
    5  0.102  0.001  0.001  0.000  0.000  0.000  0.000  0.000  0.000  0.103
    6  0.000  0.020  0.005  0.000  0.000  0.000  0.000  0.000  0.000  0.024
    7  0.059  0.001  0.001  0.000  0.000  0.000  0.000  0.000  0.000  0.061
    8  0.001  0.002  0.004  0.000  0.000  0.000  0.000  0.000  0.000  0.007
    9  0.037  0.000  0.001  0.002  0.000  0.000  0.000  0.000  0.000  0.040
   10  0.037  0.000  0.001  0.002  0.000  0.000  0.000  0.000  0.000  0.040
   11  0.036  0.000  0.003  0.000  0.000  0.000  0.000  0.000  0.000  0.039
   12  0.003  0.000  0.000  0.000  0.000  0.000  0.000  0.000  0.000  0.003
   13  0.022  0.002  0.000  0.000  0.000  0.000  0.000  0.000  0.000  0.024
   14  0.000  0.000  0.000  0.000  0.000  0.000  0.000  0.000  0.000  0.000
   15  0.006  0.000  0.000  0.000  0.000  0.000  0.000  0.000  0.000  0.006
   16  0.005  0.001  0.007  0.000  0.000  0.000  0.000  0.000  0.000  0.013
tot    0.574  0.115  0.033  0.005  0.000  0.000  0.000  0.000  0.000  0.726
 
band     7 # energy  -14.83760298 # occ.  2.00000000
 
ion      s     py     pz     px    dxy    dyz    dz2    dxz  x2-y2    tot
    1  0.005  0.000  0.004  0.000  0.000  0.000  0.000  0.000  0.000  0.010
    2  0.000  0.000  0.060  0.000  0.000  0.000  0.000  0.000  0.000  0.060
    3  0.040  0.067  0.000  0.000  0.000  0.000  0.000  0.000  0.000  0.107
    4  0.069  0.000  0.004  0.000  0.000  0.000  0.000  0.000  0.000  0.074
    5  0.014  0.001  0.030  0.000  0.000  0.000  0.000  0.000  0.000  0.045
    6  0.036  0.018  0.002  0.000  0.000  0.000  0.000  0.000  0.000  0.055
    7  0.056  0.011  0.000  0.000  0.000  0.000  0.000  0.000  0.000  0.067
    8  0.020  0.025  0.061  0.000  0.000  0.000  0.000  0.000  0.000  0.106
    9  0.000  0.000  0.000  0.000  0.000  0.000  0.000  0.000  0.000  0.000
   10  0.000  0.000  0.000  0.000  0.000  0.000  0.000  0.000  0.000  0.000
   11  0.006  0.000  0.000  0.000  0.000  0.000  0.000  0.000  0.000  0.006
   12  0.052  0.004  0.003  0.000  0.000  0.000  0.000  0.000  0.000  0.059
   13  0.005  0.000  0.000  0.000  0.000  0.000  0.000  0.000  0.000  0.005
   14  0.011  0.000  0.001  0.000  0.000  0.000  0.000  0.000  0.000  0.012
   15  0.019  0.000  0.001  0.000  0.000  0.000  0.000  0.000  0.000  0.021
   16  0.001  0.009  0.145  0.000  0.000  0.000  0.000  0.000  0.000  0.155
tot    0.334  0.135  0.313  0.001  0.000  0.000  0.000  0.000  0.000  0.783
 
band     8 # energy  -14.12517722 # occ.  2.00000000
 
ion      s     py     pz     px    dxy    dyz    dz2    dxz  x2-y2    tot
    1  0.044  0.013  0.000  0.000  0.000  0.000  0.000  0.000  0.000  0.057
    2  0.074  0.009  0.002  0.000  0.000  0.000  0.000  0.000  0.000  0.086
    3  0.016  0.026  0.033  0.000  0.000  0.000  0.000  0.000  0.000  0.075
    4  0.006  0.050  0.039  0.000  0.000  0.000  0.000  0.000  0.000  0.095
    5  0.044  0.002  0.023  0.000  0.000  0.000  0.000  0.000  0.000  0.068
    6  0.080  0.001  0.015  0.000  0.000  0.000  0.000  0.000  0.000  0.096
    7  0.000  0.034  0.024  0.000  0.000  0.000  0.000  0.000  0.000  0.058
    8  0.004  0.047  0.006  0.000  0.000  0.000  0.000  0.000  0.000  0.057
    9  0.015  0.000  0.000  0.001  0.000  0.000  0.000  0.000  0.000  0.016
   10  0.015  0.000  0.000  0.001  0.000  0.000  0.000  0.000  0.000  0.016
   11  0.013  0.000  0.001  0.000  0.000  0.000  0.000  0.000  0.000  0.014
   12  0.005  0.001  0.000  0.000  0.000  0.000  0.000  0.000  0.000  0.006
   13  0.017  0.001  0.000  0.000  0.000  0.000  0.000  0.000  0.000  0.019
   14  0.036  0.001  0.002  0.000  0.000  0.000  0.000  0.000  0.000  0.039
   15  0.000  0.000  0.000  0.000  0.000  0.000  0.000  0.000  0.000  0.001
   16  0.011  0.008  0.022  0.000  0.000  0.000  0.000  0.000  0.000  0.041
tot    0.380  0.194  0.168  0.002  0.000  0.000  0.000  0.000  0.000  0.744
 
band     9 # energy  -13.28828014 # occ.  2.00000000
 
ion      s     py     pz     px    dxy    dyz    dz2    dxz  x2-y2    tot
    1  0.005  0.002  0.000  0.000  0.000  0.000  0.000  0.000  0.000  0.007
    2  0.001  0.004  0.002  0.000  0.000  0.000  0.000  0.000  0.000  0.007
    3  0.002  0.055  0.034  0.000  0.000  0.000  0.000  0.000  0.000  0.091
    4  0.003  0.078  0.019  0.000  0.000  0.000  0.000  0.000  0.000  0.100
    5  0.000  0.014  0.018  0.000  0.000  0.000  0.000  0.000  0.000  0.032
    6  0.002  0.004  0.012  0.000  0.000  0.000  0.000  0.000  0.000  0.018
    7  0.027  0.002  0.014  0.000  0.000  0.000  0.000  0.000  0.000  0.044
    8  0.013  0.001  0.191  0.000  0.000  0.000  0.000  0.000  0.000  0.206
    9  0.002  0.000  0.000  0.000  0.000  0.000  0.000  0.000  0.000  0.002
   10  0.002  0.000  0.000  0.000  0.000  0.000  0.000  0.000  0.000  0.002
   11  0.002  0.000  0.000  0.000  0.000  0.000  0.000  0.000  0.000  0.002
   12  0.060  0.003  0.002  0.000  0.000  0.000  0.000  0.000  0.000  0.066
   13  0.008  0.001  0.000  0.000  0.000  0.000  0.000  0.000  0.000  0.008
   14  0.000  0.000  0.000  0.000  0.000  0.000  0.000  0.000  0.000  0.000
   15  0.026  0.000  0.001  0.000  0.000  0.000  0.000  0.000  0.000  0.028
   16  0.002  0.010  0.170  0.000  0.000  0.000  0.000  0.000  0.000  0.183
tot    0.153  0.176  0.463  0.001  0.000  0.000  0.000  0.000  0.000  0.794
 
band    10 # energy  -11.97936517 # occ.  2.00000000
 
ion      s     py     pz     px    dxy    dyz    dz2    dxz  x2-y2    tot
    1  0.006  0.025  0.001  0.000  0.000  0.000  0.000  0.000  0.000  0.031
    2  0.062  0.000  0.006  0.000  0.000  0.000  0.000  0.000  0.000  0.069
    3  0.001  0.003  0.025  0.000  0.000  0.000  0.000  0.000  0.000  0.029
    4  0.004  0.001  0.087  0.000  0.000  0.000  0.000  0.000  0.000  0.092
    5  0.001  0.021  0.044  0.000  0.000  0.000  0.000  0.000  0.000  0.066
    6  0.017  0.045  0.003  0.000  0.000  0.000  0.000  0.000  0.000  0.064
    7  0.025  0.002  0.014  0.000  0.000  0.000  0.000  0.000  0.000  0.041
    8  0.008  0.085  0.128  0.000  0.000  0.000  0.000  0.000  0.000  0.221
    9  0.005  0.000  0.000  0.000  0.000  0.000  0.000  0.000  0.000  0.005
   10  0.005  0.000  0.000  0.000  0.000  0.000  0.000  0.000  0.000  0.005
   11  0.011  0.000  0.001  0.000  0.000  0.000  0.000  0.000  0.000  0.011
   12  0.019  0.001  0.000  0.000  0.000  0.000  0.000  0.000  0.000  0.021
   13  0.006  0.000  0.000  0.000  0.000  0.000  0.000  0.000  0.000  0.006
   14  0.031  0.000  0.002  0.000  0.000  0.000  0.000  0.000  0.000  0.034
   15  0.022  0.001  0.001  0.000  0.000  0.000  0.000  0.000  0.000  0.024
   16  0.001  0.000  0.064  0.000  0.000  0.000  0.000  0.000  0.000  0.065
tot    0.223  0.183  0.377  0.002  0.000  0.000  0.000  0.000  0.000  0.785
 
band    11 # energy  -11.64020671 # occ.  2.00000000
 
ion      s     py     pz     px    dxy    dyz    dz2    dxz  x2-y2    tot
    1  0.001  0.004  0.018  0.000  0.000  0.000  0.000  0.000  0.000  0.023
    2  0.000  0.005  0.051  0.000  0.000  0.000  0.000  0.000  0.000  0.056
    3  0.005  0.015  0.049  0.000  0.000  0.000  0.000  0.000  0.000  0.068
    4  0.005  0.032  0.004  0.000  0.000  0.000  0.000  0.000  0.000  0.041
    5  0.027  0.052  0.019  0.000  0.000  0.000  0.000  0.000  0.000  0.098
    6  0.011  0.048  0.001  0.000  0.000  0.000  0.000  0.000  0.000  0.060
    7  0.003  0.086  0.001  0.000  0.000  0.000  0.000  0.000  0.000  0.090
    8  0.000  0.015  0.067  0.000  0.000  0.000  0.000  0.000  0.000  0.082
    9  0.007  0.000  0.000  0.000  0.000  0.000  0.000  0.000  0.000  0.007
   10  0.007  0.000  0.000  0.000  0.000  0.000  0.000  0.000  0.000  0.007
   11  0.005  0.000  0.000  0.000  0.000  0.000  0.000  0.000  0.000  0.005
   12  0.000  0.001  0.000  0.000  0.000  0.000  0.000  0.000  0.000  0.002
   13  0.064  0.004  0.000  0.000  0.000  0.000  0.000  0.000  0.000  0.068
   14  0.000  0.000  0.000  0.000  0.000  0.000  0.000  0.000  0.000  0.000
   15  0.024  0.000  0.002  0.000  0.000  0.000  0.000  0.000  0.000  0.026
   16  0.011  0.046  0.022  0.000  0.000  0.000  0.000  0.000  0.000  0.079
tot    0.169  0.309  0.234  0.001  0.000  0.000  0.000  0.000  0.000  0.713
 
band    12 # energy  -10.71457148 # occ.  2.00000000
 
ion      s     py     pz     px    dxy    dyz    dz2    dxz  x2-y2    tot
    1  0.000  0.000  0.000  0.008  0.000  0.000  0.000  0.000  0.000  0.008
    2  0.000  0.000  0.000  0.012  0.000  0.000  0.000  0.000  0.000  0.012
    3  0.000  0.000  0.000  0.046  0.000  0.000  0.000  0.000  0.000  0.046
    4  0.000  0.000  0.000  0.094  0.000  0.000  0.000  0.000  0.000  0.094
    5  0.000  0.000  0.000  0.015  0.000  0.000  0.000  0.000  0.000  0.015
    6  0.000  0.000  0.000  0.004  0.000  0.000  0.000  0.000  0.000  0.004
    7  0.000  0.000  0.000  0.003  0.000  0.000  0.000  0.000  0.000  0.003
    8  0.000  0.000  0.001  0.414  0.000  0.000  0.000  0.000  0.000  0.415
    9  0.003  0.000  0.000  0.000  0.000  0.000  0.000  0.000  0.000  0.003
   10  0.003  0.000  0.000  0.000  0.000  0.000  0.000  0.000  0.000  0.003
   11  0.000  0.000  0.000  0.000  0.000  0.000  0.000  0.000  0.000  0.000
   12  0.000  0.000  0.000  0.001  0.000  0.000  0.000  0.000  0.000  0.001
   13  0.000  0.000  0.000  0.000  0.000  0.000  0.000  0.000  0.000  0.000
   14  0.000  0.000  0.000  0.000  0.000  0.000  0.000  0.000  0.000  0.000
   15  0.000  0.000  0.000  0.000  0.000  0.000  0.000  0.000  0.000  0.000
   16  0.000  0.000  0.000  0.036  0.000  0.000  0.000  0.000  0.000  0.037
tot    0.007  0.000  0.002  0.632  0.000  0.000  0.000  0.000  0.000  0.641
 
band    13 # energy  -10.56308123 # occ.  2.00000000
 
ion      s     py     pz     px    dxy    dyz    dz2    dxz  x2-y2    tot
    1  0.000  0.002  0.008  0.000  0.000  0.000  0.000  0.000  0.000  0.009
    2  0.000  0.003  0.052  0.000  0.000  0.000  0.000  0.000  0.000  0.055
    3  0.013  0.002  0.031  0.000  0.000  0.000  0.000  0.000  0.000  0.046
    4  0.004  0.001  0.010  0.000  0.000  0.000  0.000  0.000  0.000  0.015
    5  0.001  0.045  0.047  0.000  0.000  0.000  0.000  0.000  0.000  0.092
    6  0.001  0.000  0.146  0.000  0.000  0.000  0.000  0.000  0.000  0.148
    7  0.000  0.000  0.098  0.000  0.000  0.000  0.000  0.000  0.000  0.098
    8  0.000  0.044  0.013  0.000  0.000  0.000  0.000  0.000  0.000  0.058
    9  0.000  0.000  0.000  0.000  0.000  0.000  0.000  0.000  0.000  0.000
   10  0.000  0.000  0.000  0.000  0.000  0.000  0.000  0.000  0.000  0.000
   11  0.006  0.000  0.000  0.000  0.000  0.000  0.000  0.000  0.000  0.006
   12  0.013  0.001  0.000  0.000  0.000  0.000  0.000  0.000  0.000  0.014
   13  0.026  0.001  0.000  0.000  0.000  0.000  0.000  0.000  0.000  0.027
   14  0.062  0.002  0.001  0.000  0.000  0.000  0.000  0.000  0.000  0.065
   15  0.045  0.001  0.001  0.000  0.000  0.000  0.000  0.000  0.000  0.048
   16  0.002  0.000  0.048  0.000  0.000  0.000  0.000  0.000  0.000  0.050
tot    0.174  0.103  0.456  0.001  0.000  0.000  0.000  0.000  0.000  0.734
 
band    14 # energy   -9.69249826 # occ.  2.00000000
 
ion      s     py     pz     px    dxy    dyz    dz2    dxz  x2-y2    tot
    1  0.000  0.074  0.035  0.000  0.000  0.000  0.000  0.000  0.000  0.110
    2  0.006  0.066  0.010  0.000  0.000  0.000  0.000  0.000  0.000  0.082
    3  0.003  0.002  0.007  0.000  0.000  0.000  0.000  0.000  0.000  0.012
    4  0.016  0.000  0.019  0.000  0.000  0.000  0.000  0.000  0.000  0.036
    5  0.005  0.100  0.001  0.000  0.000  0.000  0.000  0.000  0.000  0.105
    6  0.009  0.041  0.006  0.000  0.000  0.000  0.000  0.000  0.000  0.056
    7  0.020  0.020  0.002  0.000  0.000  0.000  0.000  0.000  0.000  0.042
    8  0.000  0.053  0.000  0.000  0.000  0.000  0.000  0.000  0.000  0.054
    9  0.030  0.000  0.000  0.002  0.000  0.000  0.000  0.000  0.000  0.032
   10  0.028  0.000  0.000  0.002  0.000  0.000  0.000  0.000  0.000  0.029
   11  0.004  0.001  0.000  0.000  0.000  0.000  0.000  0.000  0.000  0.005
   12  0.001  0.000  0.000  0.000  0.000  0.000  0.000  0.000  0.000  0.001
   13  0.103  0.005  0.000  0.000  0.000  0.000  0.000  0.000  0.000  0.107
   14  0.042  0.000  0.002  0.000  0.000  0.000  0.000  0.000  0.000  0.044
   15  0.000  0.000  0.000  0.000  0.000  0.000  0.000  0.000  0.000  0.000
   16  0.001  0.000  0.002  0.000  0.000  0.000  0.000  0.000  0.000  0.003
tot    0.267  0.363  0.084  0.004  0.000  0.000  0.000  0.000  0.000  0.718
 
band    15 # energy   -9.65667493 # occ.  2.00000000
 
ion      s     py     pz     px    dxy    dyz    dz2    dxz  x2-y2    tot
    1  0.000  0.000  0.000  0.164  0.000  0.000  0.000  0.000  0.000  0.164
    2  0.000  0.000  0.000  0.055  0.000  0.000  0.000  0.000  0.000  0.056
    3  0.000  0.000  0.000  0.030  0.000  0.000  0.000  0.000  0.000  0.030
    4  0.000  0.000  0.000  0.002  0.000  0.000  0.000  0.000  0.000  0.002
    5  0.000  0.000  0.000  0.000  0.000  0.000  0.000  0.000  0.000  0.000
    6  0.000  0.000  0.000  0.002  0.000  0.000  0.000  0.000  0.000  0.002
    7  0.000  0.000  0.000  0.011  0.000  0.000  0.000  0.000  0.000  0.011
    8  0.000  0.000  0.000  0.141  0.000  0.000  0.000  0.000  0.000  0.141
    9  0.078  0.001  0.002  0.001  0.000  0.000  0.000  0.000  0.000  0.082
   10  0.080  0.001  0.002  0.001  0.000  0.000  0.000  0.000  0.000  0.084
   11  0.000  0.000  0.000  0.001  0.000  0.000  0.000  0.000  0.000  0.001
   12  0.000  0.000  0.000  0.001  0.000  0.000  0.000  0.000  0.000  0.001
   13  0.000  0.000  0.000  0.000  0.000  0.000  0.000  0.000  0.000  0.000
   14  0.000  0.000  0.000  0.000  0.000  0.000  0.000  0.000  0.000  0.000
   15  0.000  0.000  0.000  0.000  0.000  0.000  0.000  0.000  0.000  0.000
   16  0.000  0.000  0.000  0.049  0.000  0.000  0.000  0.000  0.000  0.049
tot    0.158  0.003  0.005  0.458  0.000  0.000  0.000  0.000  0.000  0.623
 
band    16 # energy   -9.37811896 # occ.  2.00000000
 
ion      s     py     pz     px    dxy    dyz    dz2    dxz  x2-y2    tot
    1  0.000  0.055  0.053  0.000  0.000  0.000  0.000  0.000  0.000  0.108
    2  0.000  0.064  0.009  0.000  0.000  0.000  0.000  0.000  0.000  0.073
    3  0.011  0.002  0.000  0.000  0.000  0.000  0.000  0.000  0.000  0.014
    4  0.003  0.000  0.004  0.000  0.000  0.000  0.000  0.000  0.000  0.007
    5  0.007  0.021  0.001  0.000  0.000  0.000  0.000  0.000  0.000  0.029
    6  0.001  0.003  0.010  0.000  0.000  0.000  0.000  0.000  0.000  0.013
    7  0.000  0.000  0.040  0.000  0.000  0.000  0.000  0.000  0.000  0.040
    8  0.000  0.237  0.069  0.000  0.000  0.000  0.000  0.000  0.000  0.306
    9  0.000  0.001  0.000  0.000  0.000  0.000  0.000  0.000  0.000  0.001
   10  0.000  0.001  0.000  0.000  0.000  0.000  0.000  0.000  0.000  0.001
   11  0.069  0.000  0.003  0.000  0.000  0.000  0.000  0.000  0.000  0.073
   12  0.000  0.000  0.000  0.000  0.000  0.000  0.000  0.000  0.000  0.001
   13  0.006  0.000  0.000  0.000  0.000  0.000  0.000  0.000  0.000  0.006
   14  0.013  0.000  0.001  0.000  0.000  0.000  0.000  0.000  0.000  0.014
   15  0.023  0.001  0.001  0.000  0.000  0.000  0.000  0.000  0.000  0.025
   16  0.000  0.019  0.000  0.000  0.000  0.000  0.000  0.000  0.000  0.019
tot    0.136  0.403  0.190  0.000  0.000  0.000  0.000  0.000  0.000  0.730
 
band    17 # energy   -9.01441559 # occ.  2.00000000
 
ion      s     py     pz     px    dxy    dyz    dz2    dxz  x2-y2    tot
    1  0.001  0.032  0.008  0.000  0.000  0.000  0.000  0.000  0.000  0.041
    2  0.004  0.028  0.002  0.000  0.000  0.000  0.000  0.000  0.000  0.035
    3  0.000  0.009  0.031  0.000  0.000  0.000  0.000  0.000  0.000  0.040
    4  0.003  0.015  0.000  0.000  0.000  0.000  0.000  0.000  0.000  0.018
    5  0.000  0.000  0.009  0.000  0.000  0.000  0.000  0.000  0.000  0.009
    6  0.002  0.043  0.001  0.000  0.000  0.000  0.000  0.000  0.000  0.045
    7  0.000  0.044  0.002  0.000  0.000  0.000  0.000  0.000  0.000  0.045
    8  0.000  0.020  0.001  0.000  0.000  0.000  0.000  0.000  0.000  0.022
    9  0.000  0.000  0.000  0.000  0.000  0.000  0.000  0.000  0.000  0.000
   10  0.000  0.000  0.000  0.000  0.000  0.000  0.000  0.000  0.000  0.000
   11  0.015  0.000  0.001  0.000  0.000  0.000  0.000  0.000  0.000  0.016
   12  0.034  0.000  0.006  0.000  0.000  0.000  0.000  0.000  0.000  0.039
   13  0.000  0.000  0.000  0.000  0.000  0.000  0.000  0.000  0.000  0.000
   14  0.008  0.000  0.000  0.000  0.000  0.000  0.000  0.000  0.000  0.008
   15  0.017  0.000  0.001  0.000  0.000  0.000  0.000  0.000  0.000  0.018
   16  0.046  0.373  0.001  0.000  0.000  0.000  0.000  0.000  0.000  0.421
tot    0.131  0.565  0.062  0.000  0.000  0.000  0.000  0.000  0.000  0.759
 
band    18 # energy   -8.60191984 # occ.  2.00000000
 
ion      s     py     pz     px    dxy    dyz    dz2    dxz  x2-y2    tot
    1  0.000  0.000  0.000  0.108  0.000  0.000  0.000  0.000  0.000  0.108
    2  0.000  0.000  0.000  0.000  0.000  0.000  0.000  0.000  0.000  0.000
    3  0.000  0.000  0.000  0.073  0.000  0.000  0.000  0.000  0.000  0.073
    4  0.000  0.000  0.000  0.004  0.000  0.000  0.000  0.000  0.000  0.004
    5  0.000  0.000  0.000  0.002  0.000  0.000  0.000  0.000  0.000  0.002
    6  0.000  0.000  0.000  0.002  0.000  0.000  0.000  0.000  0.000  0.002
    7  0.000  0.000  0.000  0.001  0.000  0.000  0.000  0.000  0.000  0.001
    8  0.000  0.000  0.000  0.091  0.000  0.000  0.000  0.000  0.000  0.091
    9  0.057  0.001  0.001  0.001  0.000  0.000  0.000  0.000  0.000  0.060
   10  0.058  0.001  0.001  0.001  0.000  0.000  0.000  0.000  0.000  0.060
   11  0.000  0.000  0.000  0.001  0.000  0.000  0.000  0.000  0.000  0.001
   12  0.000  0.000  0.000  0.004  0.000  0.000  0.000  0.000  0.000  0.004
   13  0.000  0.000  0.000  0.000  0.000  0.000  0.000  0.000  0.000  0.000
   14  0.000  0.000  0.000  0.000  0.000  0.000  0.000  0.000  0.000  0.000
   15  0.000  0.000  0.000  0.000  0.000  0.000  0.000  0.000  0.000  0.000
   16  0.000  0.000  0.001  0.266  0.000  0.000  0.000  0.000  0.000  0.267
tot    0.114  0.001  0.004  0.553  0.000  0.000  0.000  0.000  0.000  0.673
 
band    19 # energy   -8.47561393 # occ.  2.00000000
 
ion      s     py     pz     px    dxy    dyz    dz2    dxz  x2-y2    tot
    1  0.000  0.001  0.130  0.000  0.000  0.000  0.000  0.000  0.000  0.131
    2  0.001  0.000  0.006  0.000  0.000  0.000  0.000  0.000  0.000  0.007
    3  0.000  0.015  0.004  0.000  0.000  0.000  0.000  0.000  0.000  0.019
    4  0.000  0.014  0.004  0.000  0.000  0.000  0.000  0.000  0.000  0.018
    5  0.000  0.006  0.058  0.000  0.000  0.000  0.000  0.000  0.000  0.064
    6  0.000  0.039  0.030  0.000  0.000  0.000  0.000  0.000  0.000  0.070
    7  0.002  0.051  0.003  0.000  0.000  0.000  0.000  0.000  0.000  0.056
    8  0.000  0.141  0.048  0.000  0.000  0.000  0.000  0.000  0.000  0.189
    9  0.028  0.000  0.000  0.002  0.000  0.000  0.000  0.000  0.000  0.030
   10  0.027  0.000  0.000  0.002  0.000  0.000  0.000  0.000  0.000  0.029
   11  0.095  0.001  0.003  0.000  0.000  0.000  0.000  0.000  0.000  0.099
   12  0.000  0.000  0.000  0.000  0.000  0.000  0.000  0.000  0.000  0.000
   13  0.007  0.000  0.000  0.000  0.000  0.000  0.000  0.000  0.000  0.007
   14  0.003  0.001  0.000  0.000  0.000  0.000  0.000  0.000  0.000  0.004
   15  0.029  0.000  0.001  0.000  0.000  0.000  0.000  0.000  0.000  0.030
   16  0.000  0.003  0.001  0.000  0.000  0.000  0.000  0.000  0.000  0.004
tot    0.193  0.272  0.289  0.004  0.000  0.000  0.000  0.000  0.000  0.758
 
band    20 # energy   -8.08801298 # occ.  2.00000000
 
ion      s     py     pz     px    dxy    dyz    dz2    dxz  x2-y2    tot
    1  0.000  0.000  0.045  0.000  0.000  0.000  0.000  0.000  0.000  0.046
    2  0.003  0.001  0.104  0.000  0.000  0.000  0.000  0.000  0.000  0.109
    3  0.013  0.018  0.028  0.000  0.000  0.000  0.000  0.000  0.000  0.060
    4  0.010  0.000  0.005  0.000  0.000  0.000  0.000  0.000  0.000  0.015
    5  0.004  0.007  0.047  0.000  0.000  0.000  0.000  0.000  0.000  0.058
    6  0.000  0.000  0.072  0.000  0.000  0.000  0.000  0.000  0.000  0.072
    7  0.001  0.001  0.107  0.000  0.000  0.000  0.000  0.000  0.000  0.108
    8  0.000  0.001  0.033  0.000  0.000  0.000  0.000  0.000  0.000  0.034
    9  0.010  0.000  0.000  0.001  0.000  0.000  0.000  0.000  0.000  0.011
   10  0.010  0.000  0.000  0.001  0.000  0.000  0.000  0.000  0.000  0.011
   11  0.046  0.000  0.001  0.000  0.000  0.000  0.000  0.000  0.000  0.047
   12  0.009  0.000  0.000  0.000  0.000  0.000  0.000  0.000  0.000  0.010
   13  0.002  0.000  0.000  0.000  0.000  0.000  0.000  0.000  0.000  0.002
   14  0.058  0.001  0.001  0.000  0.000  0.000  0.000  0.000  0.000  0.060
   15  0.076  0.001  0.001  0.000  0.000  0.000  0.000  0.000  0.000  0.078
   16  0.004  0.010  0.014  0.000  0.000  0.000  0.000  0.000  0.000  0.028
tot    0.247  0.041  0.459  0.002  0.000  0.000  0.000  0.000  0.000  0.749
 
band    21 # energy   -7.60649185 # occ.  2.00000000
 
ion      s     py     pz     px    dxy    dyz    dz2    dxz  x2-y2    tot
    1  0.002  0.073  0.003  0.000  0.000  0.000  0.000  0.000  0.000  0.079
    2  0.001  0.072  0.001  0.000  0.000  0.000  0.000  0.000  0.000  0.074
    3  0.000  0.067  0.003  0.000  0.000  0.000  0.000  0.000  0.000  0.070
    4  0.001  0.070  0.014  0.000  0.000  0.000  0.000  0.000  0.000  0.085
    5  0.001  0.040  0.011  0.000  0.000  0.000  0.000  0.000  0.000  0.052
    6  0.001  0.057  0.006  0.001  0.000  0.000  0.000  0.000  0.000  0.064
    7  0.000  0.060  0.000  0.001  0.000  0.000  0.000  0.000  0.000  0.061
    8  0.000  0.061  0.003  0.000  0.000  0.000  0.000  0.000  0.000  0.064
    9  0.009  0.000  0.000  0.001  0.000  0.000  0.000  0.000  0.000  0.010
   10  0.007  0.000  0.000  0.000  0.000  0.000  0.000  0.000  0.000  0.008
   11  0.000  0.001  0.000  0.000  0.000  0.000  0.000  0.000  0.000  0.001
   12  0.009  0.000  0.001  0.000  0.000  0.000  0.000  0.000  0.000  0.011
   13  0.038  0.001  0.000  0.000  0.000  0.000  0.000  0.000  0.000  0.039
   14  0.031  0.000  0.001  0.000  0.000  0.000  0.000  0.000  0.000  0.032
   15  0.011  0.000  0.001  0.000  0.000  0.000  0.000  0.000  0.000  0.011
   16  0.007  0.090  0.004  0.001  0.000  0.000  0.000  0.000  0.000  0.103