QM9                                     
           1
     7.753300    0.000000    0.000000
     0.000000   11.819800    0.000000
     0.000000    0.000000   11.230800
   C    F    H    O 
     7     1     7     1
Direct configuration=     1
   0.49762037  0.71183100  0.54367454
   0.49952923  0.58443459  0.54367454
   0.50797725  0.52622718  0.43537415
   0.50973134  0.40834024  0.43525840
   0.50341145  0.34532733  0.53875948
   0.49497633  0.40293406  0.64685508
   0.49313196  0.52076177  0.64835096
   0.51803748  0.35734953  0.32765253
   0.61306798  0.74618860  0.50062329
   0.38693202  0.74472495  0.49391851
   0.49144235  0.74474187  0.63447840
   0.51973998  0.53129495  0.26712256
   0.50512685  0.25381140  0.53344374
   0.48988173  0.35579282  0.72955622
   0.48656701  0.56508570  0.73287744
   0.51438742  0.58535677  0.33141005
Direct configuration=     2
   0.49765171  0.71148952  0.54367573
   0.49951819  0.58493035  0.54377317
   0.50797642  0.52617515  0.43556637
   0.50961297  0.40883552  0.43651261
   0.50338095  0.34529386  0.53873428
   0.49502044  0.40295818  0.64685974
   0.49317869  0.52076063  0.64836875
   0.51806359  0.35657553  0.32616256
   0.61338527  0.74627202  0.50050957
   0.38663063  0.74480526  0.49378395
   0.49142782  0.74479902  0.63473911
   0.51980717  0.53079340  0.26633355
   0.50513546  0.25343816  0.53347076
   0.48986425  0.35560856  0.72987009
   0.48654280  0.56526402  0.73320085
   0.51436440  0.58620360  0.33146880
Direct configuration=     3
   0.49764289  0.71158565  0.54367539
   0.49952130  0.58479077  0.54374540
   0.50797665  0.52618980  0.43551225
   0.50964630  0.40869609  0.43615951
   0.50338954  0.34530328  0.53874137
   0.49500802  0.40295139  0.64685842
   0.49316553  0.52076095  0.64836374
   0.51805624  0.35679343  0.32658204
   0.61329594  0.74624853  0.50054158
   0.38671548  0.74478265  0.49382183
   0.49143191  0.74478293  0.63466571
   0.51978826  0.53093461  0.26655568
   0.50513303  0.25354324  0.53346316
   0.48986917  0.35566043  0.72978173
   0.48654961  0.56521382  0.73310980
   0.51437088  0.58596519  0.33145226
Direct configuration=     4
   0.49765033  0.71164321  0.54369652
   0.49952876  0.58490739  0.54386523
   0.50797449  0.52663074  0.43556937
   0.50963001  0.40862514  0.43595321
   0.50334131  0.34499530  0.53902873
   0.49504048  0.40288354  0.64704051
   0.49320394  0.52092500  0.64847722
   0.51801997  0.35651484  0.32611233
   0.61346562  0.74627803  0.50047771
   0.38656673  0.74480777  0.49375050
   0.49142540  0.74478822  0.63480457
   0.51979909  0.53099212  0.26642082
   0.50513707  0.25330268  0.53347644
   0.48985874  0.35554486  0.72998291
   0.48653356  0.56532459  0.73333645
   0.51438525  0.58603934  0.33103739
Direct configuration=     5
   0.49765216  0.71165728  0.54370168
   0.49953058  0.58493591  0.54389453
   0.50797397  0.52673859  0.43558334
   0.50962602  0.40860779  0.43590275
   0.50332952  0.34491997  0.53909901
   0.49504842  0.40286694  0.64708504
   0.49321334  0.52096512  0.64850498
   0.51801110  0.35644670  0.32599745
   0.61350711  0.74628525  0.50046209
   0.38653034  0.74481391  0.49373305
   0.49142381  0.74478951  0.63483853
   0.51980174  0.53100619  0.26638783
   0.50513805  0.25324385  0.53347969
   0.48985619  0.35551659  0.73003212
   0.48652963  0.56535169  0.73339188
   0.51438877  0.58605748  0.33093592
Direct configuration=     6
   0.49765342  0.71191699  0.54374700
   0.49953626  0.58509878  0.54400238
   0.50799467  0.52668746  0.43529089
   0.50959945  0.40851524  0.43570103
   0.50329529  0.34487232  0.53901992
   0.49508772  0.40289392  0.64731904
   0.49325404  0.52097095  0.64871759
   0.51793496  0.35634764  0.32588958
   0.61359285  0.74629483  0.50043156
   0.38646772  0.74481822  0.49370122
   0.49142191  0.74479208  0.63492344
   0.51981694  0.53101085  0.26619339
   0.50513680  0.25291316  0.53352870
   0.48984716  0.35541785  0.73026012
   0.48651790  0.56546766  0.73360703
   0.51440366  0.58618483  0.33069699
Direct configuration=     7
   0.49765376  0.71198617  0.54375908
   0.49953777  0.58514217  0.54403111
   0.50800018  0.52667384  0.43521298
   0.50959237  0.40849059  0.43564729
   0.50328617  0.34485963  0.53899885
   0.49509819  0.40290111  0.64738138
   0.49326488  0.52097250  0.64877424
   0.51791467  0.35632124  0.32586084
   0.61361569  0.74629739  0.50042343
   0.38645104  0.74481936  0.49369274
   0.49142140  0.74479276  0.63494607
   0.51982099  0.53101209  0.26614159
   0.50513647  0.25282507  0.53354175
   0.48984475  0.35539154  0.73032086
   0.48651477  0.56549856  0.73366435
   0.51440762  0.58621876  0.33063334
Direct configuration=     8
   0.49765971  0.71212190  0.54377916
   0.49957010  0.58504095  0.54386701
   0.50800136  0.52664835  0.43519661
   0.50954508  0.40843242  0.43560318
   0.50325955  0.34486469  0.53897374
   0.49515419  0.40281749  0.64734963
   0.49329373  0.52106991  0.64885572
   0.51782089  0.35627693  0.32587248
   0.61365782  0.74632910  0.50041976
   0.38642963  0.74484685  0.49368827
   0.49142237  0.74484581  0.63502670
   0.51983650  0.53104786  0.26595459
   0.50512694  0.25271930  0.53360577
   0.48984675  0.35533644  0.73049278
   0.48651519  0.56557975  0.73382435
   0.51442095  0.58622501  0.33052013
Direct configuration=     9
   0.49765985  0.71212495  0.54377961
   0.49957082  0.58503868  0.54386332
   0.50800139  0.52664778  0.43519624
   0.50954401  0.40843112  0.43560219
   0.50325895  0.34486480  0.53897317
   0.49515545  0.40281562  0.64734892
   0.49329437  0.52107210  0.64885755
   0.51781879  0.35627593  0.32587274
   0.61365876  0.74632981  0.50041968
   0.38642915  0.74484747  0.49368817
   0.49142239  0.74484700  0.63502851
   0.51983685  0.53104867  0.26595039
   0.50512672  0.25271692  0.53360721
   0.48984680  0.35533520  0.73049665
   0.48651520  0.56558157  0.73382794
   0.51442124  0.58622515  0.33051759
Direct configuration=    10
   0.49766628  0.71212418  0.54377802
   0.49959992  0.58501825  0.54382026
   0.50800930  0.52658262  0.43511421
   0.50948169  0.40842251  0.43560562
   0.50323632  0.34477409  0.53896001
   0.49519871  0.40281373  0.64738694
   0.49332285  0.52106937  0.64882015
   0.51772901  0.35623285  0.32589303
   0.61369220  0.74638399  0.50042909
   0.38641505  0.74489715  0.49369551
   0.49142581  0.74490983  0.63510168
   0.51985112  0.53111248  0.26577645
   0.50510968  0.25273353  0.53368261
   0.48986206  0.35532152  0.73057843
   0.48652469  0.56564964  0.73394693
   0.51443606  0.58615703  0.33044093
