       N       E                     dE             d eps       ncg     rms          rms(c)
RMM:   1     0.792084873429E+03    0.79208E+03   -0.10733E+04    36   0.783E+02
RMM:   2     0.408474735229E+03   -0.38361E+03   -0.44052E+03    36   0.176E+02
RMM:   3     0.246230215355E+03   -0.16224E+03   -0.25900E+03    36   0.140E+02
RMM:   4     0.755613120291E+02   -0.17067E+03   -0.17384E+03    36   0.140E+02
RMM:   5    -0.745083781930E+01   -0.83012E+02   -0.81947E+02    36   0.108E+02
RMM:   6    -0.690429306014E+02   -0.61592E+02   -0.49546E+02    36   0.812E+01
RMM:   7    -0.943775655402E+02   -0.25335E+02   -0.15634E+02    36   0.500E+01
RMM:   8    -0.104652510342E+03   -0.10275E+02   -0.87133E+01    36   0.323E+01
RMM:   9    -0.108257015729E+03   -0.36045E+01   -0.31400E+01    36   0.193E+01
RMM:  10    -0.109428208487E+03   -0.11712E+01   -0.99770E+00    36   0.112E+01
RMM:  11    -0.109807185554E+03   -0.37898E+00   -0.35595E+00    36   0.666E+00
RMM:  12    -0.109976162804E+03   -0.16898E+00   -0.13157E+00    36   0.404E+00
RMM:  13    -0.110032111340E+03   -0.55949E-01   -0.51904E-01    36   0.244E+00
RMM:  14    -0.110055204180E+03   -0.23093E-01   -0.21428E-01    36   0.154E+00
RMM:  15    -0.110068836703E+03   -0.13633E-01   -0.13288E-01    80   0.958E-01
RMM:  16    -0.110071239442E+03   -0.24027E-02   -0.22491E-02    80   0.330E-01
RMM:  17    -0.110071766217E+03   -0.52677E-03   -0.46232E-03    78   0.131E-01
RMM:  18    -0.110071784925E+03   -0.18708E-04   -0.10921E-04    55   0.252E-02
RMM:  19    -0.110071785758E+03   -0.83321E-06   -0.69051E-06    49   0.110E-02
RMM:  20    -0.110071786049E+03   -0.29110E-06   -0.28641E-06    45   0.667E-03    0.171E+01
RMM:  21    -0.102356256337E+03    0.77155E+01   -0.14037E+01   120   0.136E+01    0.929E+00
RMM:  22    -0.100624480378E+03    0.17318E+01   -0.26484E+00   120   0.568E+00    0.420E+00
RMM:  23    -0.100314295035E+03    0.31019E+00   -0.46230E-01   120   0.244E+00    0.120E+00
RMM:  24    -0.100278785190E+03    0.35510E-01   -0.27014E-02   102   0.745E-01    0.355E-01
RMM:  25    -0.100272009684E+03    0.67755E-02   -0.43202E-03    84   0.287E-01    0.187E-01
RMM:  26    -0.100274440686E+03   -0.24310E-02   -0.12460E-02    92   0.350E-01    0.996E-02
RMM:  27    -0.100281066863E+03   -0.66262E-02   -0.27880E-03    81   0.174E-01    0.538E-02
RMM:  28    -0.100286564188E+03   -0.54973E-02   -0.76825E-04    72   0.974E-02    0.283E-02
RMM:  29    -0.100291345005E+03   -0.47808E-02   -0.78837E-04    74   0.816E-02    0.198E-02
RMM:  30    -0.100294209465E+03   -0.28645E-02   -0.48637E-04    72   0.664E-02    0.942E-03
RMM:  31    -0.100294695579E+03   -0.48611E-03   -0.10765E-04    64   0.294E-02    0.575E-03
RMM:  32    -0.100294961917E+03   -0.26634E-03   -0.35399E-05    58   0.187E-02    0.251E-03
RMM:  33    -0.100295043708E+03   -0.81791E-04   -0.18865E-05    51   0.114E-02    0.161E-03
RMM:  34    -0.100295100164E+03   -0.56456E-04   -0.95626E-06    44   0.816E-03    0.972E-04
RMM:  35    -0.100295112022E+03   -0.11859E-04   -0.34146E-06    39   0.533E-03    0.439E-04
RMM:  36    -0.100295116997E+03   -0.49741E-05   -0.15279E-06    35   0.389E-03
   1 F= -.10029512E+03 E0= -.10029512E+03  d E =-.100295E+03
       N       E                     dE             d eps       ncg     rms          rms(c)
RMM:   1    -0.100296603534E+03   -0.14915E-02   -0.40493E+00    72   0.103E+01    0.450E-01
RMM:   2    -0.100308767314E+03   -0.12164E-01   -0.17769E-01    72   0.281E+00    0.238E-01
RMM:   3    -0.100310437013E+03   -0.16697E-02   -0.23760E-02    73   0.920E-01    0.170E-01
RMM:   4    -0.100309994666E+03    0.44235E-03   -0.40001E-03    74   0.348E-01    0.688E-02
RMM:   5    -0.100309955461E+03    0.39204E-04   -0.10780E-03    76   0.166E-01    0.332E-02
RMM:   6    -0.100310018562E+03   -0.63100E-04   -0.31992E-04    74   0.832E-02    0.191E-02
RMM:   7    -0.100310046481E+03   -0.27919E-04   -0.64668E-05    64   0.388E-02    0.754E-03
RMM:   8    -0.100310119259E+03   -0.72779E-04   -0.33712E-05    57   0.228E-02    0.639E-03
RMM:   9    -0.100310166739E+03   -0.47480E-04   -0.90732E-06    48   0.126E-02    0.344E-03
RMM:  10    -0.100310243957E+03   -0.77218E-04   -0.13579E-05    51   0.133E-02    0.358E-03
RMM:  11    -0.100310271904E+03   -0.27947E-04   -0.66230E-06    46   0.822E-03    0.971E-04
RMM:  12    -0.100310289724E+03   -0.17820E-04   -0.36278E-06    42   0.550E-03    0.650E-04
RMM:  13    -0.100310295542E+03   -0.58188E-05   -0.13085E-06    32   0.371E-03
   2 F= -.10031030E+03 E0= -.10031030E+03  d E =-.151785E-01
       N       E                     dE             d eps       ncg     rms          rms(c)
RMM:   1    -0.100310990597E+03   -0.70087E-03   -0.22398E-01    72   0.243E+00    0.995E-02
RMM:   2    -0.100311734366E+03   -0.74377E-03   -0.97864E-03    72   0.665E-01    0.562E-02
RMM:   3    -0.100311832458E+03   -0.98092E-04   -0.13132E-03    73   0.218E-01    0.379E-02
RMM:   4    -0.100311814222E+03    0.18237E-04   -0.22014E-04    74   0.824E-02    0.137E-02
RMM:   5    -0.100311810427E+03    0.37949E-05   -0.55726E-05    64   0.389E-02    0.678E-03
RMM:   6    -0.100311811764E+03   -0.13368E-05   -0.14533E-05    50   0.174E-02
   3 F= -.10031181E+03 E0= -.10031181E+03  d E =-.166948E-01
       N       E                     dE             d eps       ncg     rms          rms(c)
RMM:   1    -0.100314728569E+03   -0.29181E-02   -0.44081E-01    72   0.363E+00    0.155E-01
RMM:   2    -0.100316249111E+03   -0.15205E-02   -0.20040E-02    72   0.917E-01    0.864E-02
RMM:   3    -0.100316482632E+03   -0.23352E-03   -0.29590E-03    73   0.305E-01    0.704E-02
RMM:   4    -0.100316436378E+03    0.46253E-04   -0.44621E-04    72   0.118E-01    0.316E-02
RMM:   5    -0.100316460937E+03   -0.24558E-04   -0.20437E-04    72   0.670E-02    0.166E-02
RMM:   6    -0.100316466764E+03   -0.58270E-05   -0.78028E-05    67   0.408E-02
   4 F= -.10031647E+03 E0= -.10031647E+03  d E =-.465500E-02
       N       E                     dE             d eps       ncg     rms          rms(c)
RMM:   1    -0.100316786609E+03   -0.32567E-03   -0.63060E-02    72   0.138E+00    0.596E-02
RMM:   2    -0.100317001821E+03   -0.21521E-03   -0.28995E-03    72   0.349E-01    0.332E-02
RMM:   3    -0.100317044252E+03   -0.42430E-04   -0.47268E-04    75   0.119E-01    0.288E-02
RMM:   4    -0.100317039582E+03    0.46700E-05   -0.59966E-05    69   0.434E-02    0.159E-02
RMM:   5    -0.100317045828E+03   -0.62460E-05   -0.47691E-05    63   0.295E-02    0.779E-03
RMM:   6    -0.100317047018E+03   -0.11906E-05   -0.19202E-05    51   0.192E-02
   5 F= -.10031705E+03 E0= -.10031705E+03  d E =-.523525E-02
       N       E                     dE             d eps       ncg     rms          rms(c)
RMM:   1    -0.100318357991E+03   -0.13122E-02   -0.17091E-01    72   0.225E+00    0.102E-01
RMM:   2    -0.100318852815E+03   -0.49482E-03   -0.69294E-03    72   0.515E-01    0.627E-02
RMM:   3    -0.100318898995E+03   -0.46180E-04   -0.10992E-03    73   0.174E-01    0.393E-02
RMM:   4    -0.100318886993E+03    0.12002E-04   -0.20084E-04    74   0.734E-02    0.136E-02
RMM:   5    -0.100318890789E+03   -0.37963E-05   -0.54531E-05    66   0.358E-02    0.772E-03
RMM:   6    -0.100318893404E+03   -0.26146E-05   -0.97486E-06    48   0.163E-02
   6 F= -.10031889E+03 E0= -.10031889E+03  d E =-.184639E-02
       N       E                     dE             d eps       ncg     rms          rms(c)
RMM:   1    -0.100318895941E+03   -0.51523E-05   -0.98982E-05    67   0.532E-02    0.326E-03
RMM:   2    -0.100318897638E+03   -0.16968E-05   -0.40114E-06    48   0.125E-02    0.204E-03
RMM:   3    -0.100318899588E+03   -0.19500E-05   -0.46892E-07    42   0.412E-03    0.716E-04
RMM:   4    -0.100318900895E+03   -0.13065E-05   -0.19099E-08    24   0.241E-03    0.242E-04
RMM:   5    -0.100318902157E+03   -0.12622E-05   -0.53599E-08    25   0.251E-03    0.147E-04
RMM:   6    -0.100318903828E+03   -0.16713E-05   -0.23402E-07    26   0.268E-03
   7 F= -.10031890E+03 E0= -.10031890E+03  d E =-.185681E-02
       N       E                     dE             d eps       ncg     rms          rms(c)
RMM:   1    -0.100319306325E+03   -0.40417E-03   -0.53194E-02    72   0.125E+00    0.608E-02
RMM:   2    -0.100319468332E+03   -0.16201E-03   -0.22637E-03    72   0.303E-01    0.323E-02
RMM:   3    -0.100319486503E+03   -0.18171E-04   -0.32913E-04    71   0.102E-01    0.227E-02
RMM:   4    -0.100319483315E+03    0.31885E-05   -0.70781E-05    69   0.415E-02    0.840E-03
RMM:   5    -0.100319484380E+03   -0.10653E-05   -0.16821E-05    50   0.204E-02    0.518E-03
RMM:   6    -0.100319485603E+03   -0.12233E-05   -0.33900E-06    47   0.878E-03
   8 F= -.10031949E+03 E0= -.10031949E+03  d E =-.581775E-03
       N       E                     dE             d eps       ncg     rms          rms(c)
RMM:   1    -0.100319488607E+03   -0.42271E-05   -0.25902E-04    72   0.884E-02    0.425E-03
RMM:   2    -0.100319489883E+03   -0.12758E-05   -0.13062E-05    48   0.224E-02    0.239E-03
RMM:   3    -0.100319490301E+03   -0.41790E-06   -0.21283E-06    47   0.753E-03    0.184E-03
RMM:   4    -0.100319490728E+03   -0.42667E-06   -0.40356E-07    35   0.389E-03    0.763E-04
RMM:   5    -0.100319491115E+03   -0.38702E-06   -0.17117E-07    29   0.299E-03    0.272E-04
RMM:   6    -0.100319491435E+03   -0.32042E-06    0.00000E+00    23   0.252E-03
   9 F= -.10031949E+03 E0= -.10031949E+03  d E =-.587607E-03
       N       E                     dE             d eps       ncg     rms          rms(c)
RMM:   1    -0.100319798324E+03   -0.30721E-03   -0.42928E-02    72   0.105E+00    0.485E-02
RMM:   2    -0.100319926560E+03   -0.12824E-03   -0.17103E-03    72   0.258E-01    0.231E-02
RMM:   3    -0.100319944175E+03   -0.17616E-04   -0.24866E-04    73   0.860E-02    0.170E-02
RMM:   4    -0.100319943570E+03    0.60523E-06   -0.48164E-05    57   0.334E-02    0.927E-03
RMM:   5    -0.100319943436E+03    0.13389E-06   -0.11622E-05    50   0.169E-02    0.329E-03
RMM:   6    -0.100319944450E+03   -0.10141E-05   -0.23477E-06    46   0.744E-03
  10 F= -.10031994E+03 E0= -.10031994E+03  d E =-.453015E-03
