 vasp.6.4.1 05Apr23 (build Jun 16 2023 21:25:53) gamma-only                     
  
 executed on             LinuxIFC date 2024.07.14  18:50:55
 running    8 mpi-ranks, with    1 threads/rank, on    1 nodes
 distrk:  each k-point on    8 cores,    1 groups
 distr:  one band on NCORE=   2 cores,    4 groups


--------------------------------------------------------------------------------------------------------


 INCAR:
   SYSTEM = QM9
   ISMEAR = 0
   SIGMA = 0.1
   ENCUT = 500
   EDIFF = 1E-5
   NELM = 150
   NELMIN = 6
   NELMDL = -20
   ISIF = 2
   ALGO = V
   LREAL = Auto
   ISYM = 0
   LORBIT = 11
   IBRION = 2
   POTIM = 0.2
   EDIFFG = -0.02
   NSW = 10
   LWAVE = .FALSE.
   LCHARG = .FALSE.
   NPAR = 4

 POTCAR:    PAW_PBE C 08Apr2002                   
 POTCAR:    PAW_PBE F 08Apr2002                   
 POTCAR:    PAW_PBE H 15Jun2001                   
 POTCAR:    PAW_PBE N 08Apr2002                   
 POTCAR:    PAW_PBE C 08Apr2002                   
   SHA256 =  253f7b50bb8d59471dbedb8285d89021f4a42ed1a2c5d38a03a736e69125dd95 C/POTCAR              
   COPYR  = (c) Copyright 08Apr2002 Georg Kresse                                                    
   COPYR  = This file is part of the software VASP. Any use, copying, and all other rights are regul
   COPYR  = If you do not have a valid VASP license, you may not use, copy or distribute this file. 
   VRHFIN =C: s2p2                                                                                  
   LEXCH  = PE                                                                                      
   EATOM  =   147.1560 eV,   10.8157 Ry                                                             
                                                                                                    
   TITEL  = PAW_PBE C 08Apr2002                                                                     
   LULTRA =        F    use ultrasoft PP ?                                                          
   IUNSCR =        1    unscreen: 0-lin 1-nonlin 2-no                                               
   RPACOR =    1.200    partial core radius                                                         
   POMASS =   12.011; ZVAL   =    4.000    mass and valenz                                          
   RCORE  =    1.500    outmost cutoff radius                                                       
   RWIGS  =    1.630; RWIGS  =    0.863    wigner-seitz radius (au A)                               
   ENMAX  =  400.000; ENMIN  =  300.000 eV                                                          
   ICORE  =        2    local potential                                                             
   LCOR   =        T    correct aug charges                                                         
   LPAW   =        T    paw PP                                                                      
   EAUG   =  644.873                                                                                
   DEXC   =    0.000                                                                                
   RMAX   =    1.529    core radius for proj-oper                                                   
   RAUG   =    1.300    factor for augmentation sphere                                              
   RDEP   =    1.501    radius for radial grids                                                     
   RDEPT  =    1.300    core radius for aug-charge                                                  
                                                                                                    
   Atomic configuration                                                                             
    4 entries                                                                                       
     n  l   j            E        occ.                                                              
     1  0  0.50      -273.3789   2.0000                                                             
     2  0  0.50       -13.7508   2.0000                                                             
     2  1  0.50        -5.2854   2.0000                                                             
     3  2  1.50        -5.4423   0.0000                                                             
   Description                                                                                      
     l       E           TYP  RCUT    TYP  RCUT                                                     
     0    -13.7508458     23  1.200                                                                 
     0     -8.2022199     23  1.200                                                                 
     1     -5.2854383     23  1.500                                                                 
     1     34.0145650     23  1.500                                                                 
     2     -5.4423304      7  1.500                                                                 
  local pseudopotential read in
  partial core-charges read in
  partial kinetic energy density read in
  atomic valenz-charges read in
  non local Contribution for L=           0  read in
    real space projection operators read in
  non local Contribution for L=           0  read in
    real space projection operators read in
  non local Contribution for L=           1  read in
    real space projection operators read in
  non local Contribution for L=           1  read in
    real space projection operators read in
    PAW grid and wavefunctions read in
 
   number of l-projection  operators is LMAX  =           4
   number of lm-projection operators is LMMAX =           8
 
 POTCAR:    PAW_PBE F 08Apr2002                   
   SHA256 =  53c630871ac675939349fc2b976745ee17808dedc90b5bdde026bc81f0faf456 F/POTCAR              
   COPYR  = (c) Copyright 08Apr2002 Georg Kresse                                                    
   COPYR  = This file is part of the software VASP. Any use, copying, and all other rights are regul
   COPYR  = If you do not have a valid VASP license, you may not use, copy or distribute this file. 
   VRHFIN =F: s2p5                                                                                  
   LEXCH  = PE                                                                                      
   EATOM  =   659.6475 eV,   48.4827 Ry                                                             
                                                                                                    
   TITEL  = PAW_PBE F 08Apr2002                                                                     
   LULTRA =        F    use ultrasoft PP ?                                                          
   IUNSCR =        1    unscreen: 0-lin 1-nonlin 2-no                                               
   RPACOR =    1.200    partial core radius                                                         
   POMASS =   18.998; ZVAL   =    7.000    mass and valenz                                          
   RCORE  =    1.520    outmost cutoff radius                                                       
   RWIGS  =    1.500; RWIGS  =    0.794    wigner-seitz radius (au A)                               
   ENMAX  =  400.000; ENMIN  =  300.000 eV                                                          
   ICORE  =        2    local potential                                                             
   LCOR   =        T    correct aug charges                                                         
   LPAW   =        T    paw PP                                                                      
   EAUG   =  613.614                                                                                
   RMAX   =    1.555    core radius for proj-oper                                                   
   RAUG   =    1.300    factor for augmentation sphere                                              
   RDEP   =    1.539    radius for radial grids                                                     
   RDEPT  =    1.299    core radius for aug-charge                                                  
                                                                                                    
   Atomic configuration                                                                             
    4 entries                                                                                       
     n  l   j            E        occ.                                                              
     1  0  0.50      -663.3661   2.0000                                                             
     2  0  0.50       -29.8995   2.0000                                                             
     2  1  0.50       -11.1114   5.0000                                                             
     3  2  1.50       -10.8847   0.0000                                                             
   Description                                                                                      
     l       E           TYP  RCUT    TYP  RCUT                                                     
     0    -29.8995018     23  1.200                                                                 
     0     -9.5240782     23  1.200                                                                 
     1    -11.1113914     23  1.520                                                                 
     1      1.3605826     23  1.520                                                                 
     2    -10.8846608      7  1.500                                                                 
  local pseudopotential read in
  partial core-charges read in
  partial kinetic energy density read in
  atomic valenz-charges read in
  non local Contribution for L=           0  read in
    real space projection operators read in
  non local Contribution for L=           0  read in
    real space projection operators read in
  non local Contribution for L=           1  read in
    real space projection operators read in
  non local Contribution for L=           1  read in
    real space projection operators read in
    PAW grid and wavefunctions read in
 
   number of l-projection  operators is LMAX  =           4
   number of lm-projection operators is LMMAX =           8
 
 POTCAR:    PAW_PBE H 15Jun2001                   
   SHA256 =  030f79b5d3ab3cf0e668861823c8fb652ff669f3e15e46930bd03bfd63a607b6 H/POTCAR              
   COPYR  = (c) Copyright 15Jun2001 Georg Kresse                                                    
   COPYR  = This file is part of the software VASP. Any use, copying, and all other rights are regul
   COPYR  = If you do not have a valid VASP license, you may not use, copy or distribute this file. 
   VRHFIN =H: ultrasoft test                                                                        
   LEXCH  = PE                                                                                      
   EATOM  =    12.4884 eV,    0.9179 Ry                                                             
                                                                                                    
   TITEL  = PAW_PBE H 15Jun2001                                                                     
   LULTRA =        F    use ultrasoft PP ?                                                          
   IUNSCR =        0    unscreen: 0-lin 1-nonlin 2-no                                               
   RPACOR =    0.000    partial core radius                                                         
   POMASS =    1.000; ZVAL   =    1.000    mass and valenz                                          
   RCORE  =    1.100    outmost cutoff radius                                                       
   RWIGS  =    0.700; RWIGS  =    0.370    wigner-seitz radius (au A)                               
   ENMAX  =  250.000; ENMIN  =  200.000 eV                                                          
   RCLOC  =    0.701    cutoff for local pot                                                        
   LCOR   =        T    correct aug charges                                                         
   LPAW   =        T    paw PP                                                                      
   EAUG   =  400.000                                                                                
   RMAX   =    1.123    core radius for proj-oper                                                   
   RAUG   =    1.200    factor for augmentation sphere                                              
   RDEP   =    1.112    radius for radial grids                                                     
   RDEPT  =    0.926    core radius for aug-charge                                                  
                                                                                                    
   Atomic configuration                                                                             
    2 entries                                                                                       
     n  l   j            E        occ.                                                              
     1  0  0.50        -6.4927   1.0000                                                             
     2  1  0.50        -3.4015   0.0000                                                             
   Description                                                                                      
     l       E           TYP  RCUT    TYP  RCUT                                                     
     0     -6.4927494     23  1.100                                                                 
     0      6.8029130     23  1.100                                                                 
     1     -4.0817478     23  1.100                                                                 
  local pseudopotential read in
  atomic valenz-charges read in
  non local Contribution for L=           0  read in
    real space projection operators read in
  non local Contribution for L=           0  read in
    real space projection operators read in
  non local Contribution for L=           1  read in
    real space projection operators read in
    PAW grid and wavefunctions read in
 
   number of l-projection  operators is LMAX  =           3
   number of lm-projection operators is LMMAX =           5
 
 POTCAR:    PAW_PBE N 08Apr2002                   
   SHA256 =  e053789ff3a61a86a1b75d8a110fcc91f86041011e7b0817c7c99e4e8a6349d7 N/POTCAR              
   COPYR  = (c) Copyright 08Apr2002 Georg Kresse                                                    
   COPYR  = This file is part of the software VASP. Any use, copying, and all other rights are regul
   COPYR  = If you do not have a valid VASP license, you may not use, copy or distribute this file. 
   VRHFIN =N: s2p3                                                                                  
   LEXCH  = PE                                                                                      
   EATOM  =   264.5486 eV,   19.4438 Ry                                                             
                                                                                                    
   TITEL  = PAW_PBE N 08Apr2002                                                                     
   LULTRA =        F    use ultrasoft PP ?                                                          
   IUNSCR =        1    unscreen: 0-lin 1-nonlin 2-no                                               
   RPACOR =    1.200    partial core radius                                                         
   POMASS =   14.001; ZVAL   =    5.000    mass and valenz                                          
   RCORE  =    1.500    outmost cutoff radius                                                       
   RWIGS  =    1.400; RWIGS  =    0.741    wigner-seitz radius (au A)                               
   ENMAX  =  400.000; ENMIN  =  300.000 eV                                                          
   ICORE  =        2    local potential                                                             
   LCOR   =        T    correct aug charges                                                         
   LPAW   =        T    paw PP                                                                      
   EAUG   =  627.112                                                                                
   DEXC   =    0.000                                                                                
   RMAX   =    1.529    core radius for proj-oper                                                   
   RAUG   =    1.300    factor for augmentation sphere                                              
   RDEP   =    1.514    radius for radial grids                                                     
   RDEPT  =    1.338    core radius for aug-charge                                                  
                                                                                                    
   Atomic configuration                                                                             
    4 entries                                                                                       
     n  l   j            E        occ.                                                              
     1  0  0.50      -384.7179   2.0000                                                             
     2  0  0.50       -18.5828   2.0000                                                             
     2  1  0.50        -7.0898   3.0000                                                             
     3  2  1.50        -6.8029   0.0000                                                             
   Description                                                                                      
     l       E           TYP  RCUT    TYP  RCUT                                                     
     0    -18.5828119     23  1.200                                                                 
     0    -13.5018863     23  1.200                                                                 
     1     -7.0897853     23  1.500                                                                 
     1      9.5240782     23  1.500                                                                 
     2     -6.8029130      7  1.500                                                                 
  local pseudopotential read in
  partial core-charges read in
  partial kinetic energy density read in
  atomic valenz-charges read in
  non local Contribution for L=           0  read in
    real space projection operators read in
  non local Contribution for L=           0  read in
    real space projection operators read in
  non local Contribution for L=           1  read in
    real space projection operators read in
  non local Contribution for L=           1  read in
    real space projection operators read in
    PAW grid and wavefunctions read in
 
   number of l-projection  operators is LMAX  =           4
   number of lm-projection operators is LMMAX =           8
 
 Optimization of the real space projectors (new method)

 maximal supplied QI-value         = 25.13
 optimisation between [QCUT,QGAM] = [ 11.31, 22.87] = [ 35.82,146.48] Ry 
 Optimized for a Real-space Cutoff    1.00 Angstroem

   l    n(q)    QCUT    max X(q) W(low)/X(q) W(high)/X(q)  e(spline) 
   0      7    11.310   115.676    0.43E-03    0.13E-02    0.19E-06
   0      7    11.310    87.132    0.43E-03    0.13E-02    0.18E-06
   1      6    11.310     4.429    0.42E-03    0.74E-03    0.11E-06
   1      6    11.310     2.733    0.34E-03    0.55E-03    0.92E-07
 Optimization of the real space projectors (new method)

 maximal supplied QI-value         = 24.76
 optimisation between [QCUT,QGAM] = [ 11.39, 22.77] = [ 36.31,145.25] Ry 
 Optimized for a Real-space Cutoff    1.00 Angstroem

   l    n(q)    QCUT    max X(q) W(low)/X(q) W(high)/X(q)  e(spline) 
   0      7    11.387    14.049    0.29E-03    0.95E-03    0.11E-06
   0      7    11.387     8.945    0.38E-03    0.13E-02    0.15E-06
   1      6    11.387     7.086    0.33E-03    0.10E-02    0.16E-06
   1      6    11.387     6.747    0.33E-03    0.86E-03    0.15E-06
 Optimization of the real space projectors (new method)

 maximal supplied QI-value         = 34.20
 optimisation between [QCUT,QGAM] = [ 11.29, 22.57] = [ 35.68,142.71] Ry 
 Optimized for a Real-space Cutoff    1.16 Angstroem

   l    n(q)    QCUT    max X(q) W(low)/X(q) W(high)/X(q)  e(spline) 
   0      8    11.287    19.460    0.40E-03    0.73E-03    0.16E-06
   0      8    11.287    12.209    0.38E-03    0.70E-03    0.15E-06
   1      7    11.287     4.655    0.22E-03    0.25E-04    0.22E-06
 Optimization of the real space projectors (new method)

 maximal supplied QI-value         = 25.13
 optimisation between [QCUT,QGAM] = [ 11.31, 22.87] = [ 35.82,146.48] Ry 
 Optimized for a Real-space Cutoff    1.27 Angstroem

   l    n(q)    QCUT    max X(q) W(low)/X(q) W(high)/X(q)  e(spline) 
   0      9    11.310    79.467    0.75E-04    0.16E-03    0.36E-06
   0      9    11.310    66.151    0.74E-04    0.16E-03    0.36E-06
   1      8    11.310    17.416    0.35E-03    0.12E-03    0.95E-06
   1      8    11.310    12.382    0.37E-03    0.13E-03    0.98E-06
  PAW_PBE C 08Apr2002                   :
 energy of atom  1       EATOM= -147.1560
 kinetic energy error for atom=    0.0076 (will be added to EATOM!!)
  PAW_PBE F 08Apr2002                   :
 energy of atom  2       EATOM= -659.6475
 kinetic energy error for atom=    0.0354 (will be added to EATOM!!)
  PAW_PBE H 15Jun2001                   :
 energy of atom  3       EATOM=  -12.4884
 kinetic energy error for atom=    0.0020 (will be added to EATOM!!)
  PAW_PBE N 08Apr2002                   :
 energy of atom  4       EATOM= -264.5486
 kinetic energy error for atom=    0.0138 (will be added to EATOM!!)
 
 
 POSCAR: Generated POSCAR
  positions in cartesian coordinates
  No initial velocities read in
 exchange correlation table for  LEXCH =        8
   RHO(1)=    0.500       N(1)  =     2000
   RHO(2)=  100.500       N(2)  =     4000

 VTST: version 4.1, (05/19/21)

 CHAIN: initializing optimizer
 
 OPT: Using VASP Conjugate-Gradient optimizer
 CHAIN: Read ICHAIN            0
 
 POSCAR: Generated POSCAR
  positions in cartesian coordinates
  No initial velocities read in
 


--------------------------------------------------------------------------------------------------------


 ion  position               nearest neighbor table
   1  0.500  0.710  0.544-  10 1.09   9 1.10   8 1.10   2 1.50
   2  0.500  0.582  0.546-   3 1.39   6 1.40   1 1.50
   3  0.500  0.519  0.442-   7 1.35   2 1.39   4 1.39
   4  0.500  0.400  0.442-  15 1.39   3 1.39   5 1.40
   5  0.502  0.348  0.553-  13 1.09  16 1.33   4 1.40
   6  0.500  0.519  0.651-  14 1.09  16 1.33   2 1.40
   7  0.501  0.573  0.337-   3 1.35
   8  0.613  0.744  0.498-   1 1.10
   9  0.387  0.744  0.497-   1 1.10
  10  0.500  0.744  0.634-   1 1.09
  11  0.534  0.383  0.265-  15 1.01
  12  0.542  0.260  0.340-  15 1.01
  13  0.502  0.256  0.559-   5 1.09
  14  0.500  0.563  0.735-   6 1.09
  15  0.492  0.340  0.336-  12 1.01  11 1.01   4 1.39
  16  0.502  0.405  0.655-   5 1.33   6 1.33
 

IMPORTANT INFORMATION: All symmetrisations will be switched off!
NOSYMM: (Re-)initialisation of all symmetry stuff for point group C_1.


----------------------------------------------------------------------------------------

                                     Primitive cell                                     

  volume of cell :    1030.2885

  direct lattice vectors                    reciprocal lattice vectors
     7.759100000  0.000000000  0.000000000     0.128880927  0.000000000  0.000000000
     0.000000000 11.733400000  0.000000000     0.000000000  0.085226788  0.000000000
     0.000000000  0.000000000 11.316800000     0.000000000  0.000000000  0.088364202

  length of vectors
     7.759100000 11.733400000 11.316800000     0.128880927  0.085226788  0.088364202

  position of ions in fractional coordinates (direct lattice)
     0.499890451  0.710220396  0.543731444
     0.499980668  0.582056352  0.545861021
     0.500057996  0.519158982  0.442262830
     0.500173989  0.400301703  0.441776827
     0.501565903  0.348338930  0.553265941
     0.500470415  0.518860688  0.650625619
     0.501179260  0.573107539  0.337294995
     0.613357219  0.743680434  0.497790895
     0.386642781  0.743552593  0.497472784
     0.499619801  0.744319635  0.633562491
     0.533953680  0.383298959  0.265092606
     0.541815417  0.260248521  0.340122650
     0.502403629  0.255680365  0.558753358
     0.500199765  0.563374640  0.734907394
     0.491990050  0.339637275  0.336367171
     0.501669008  0.405321561  0.654928955

  ion indices of the primitive-cell ions
   primitive index   ion index
                 1           1
                 2           2
                 3           3
                 4           4
                 5           5
                 6           6
                 7           7
                 8           8
                 9           9
                10          10
                11          11
                12          12
                13          13
                14          14
                15          15
                16          16

----------------------------------------------------------------------------------------

 
 
 KPOINTS: K-Spacing Value to Generate K-Mesh: 0.00

Automatic generation of k-mesh.
 Grid dimensions read from file:
 generate k-points for:    1    1    1

 Generating k-lattice:

  Cartesian coordinates                     Fractional coordinates (reciprocal lattice)
     0.128880927  0.000000000  0.000000000     1.000000000  0.000000000  0.000000000
     0.000000000  0.085226788  0.000000000     0.000000000  1.000000000  0.000000000
     0.000000000  0.000000000  0.088364202     0.000000000  0.000000000  1.000000000

  Length of vectors
     0.128880927  0.085226788  0.088364202

  Shift w.r.t. Gamma in fractional coordinates (k-lattice)
     0.000000000  0.000000000  0.000000000

 
 Subroutine IBZKPT returns following result:
 ===========================================
 
 Found      1 irreducible k-points:
 
 Following reciprocal coordinates:
            Coordinates               Weight
  0.000000  0.000000  0.000000      1.000000
 
 Following cartesian coordinates:
            Coordinates               Weight
  0.000000  0.000000  0.000000      1.000000
 


--------------------------------------------------------------------------------------------------------




 Dimension of arrays:
   k-points           NKPTS =      1   k-points in BZ     NKDIM =      1   number of bands    NBANDS=     36
   number of dos      NEDOS =    301   number of ions     NIONS =     16
   non local maximal  LDIM  =      4   non local SUM 2l+1 LMDIM =      8
   total plane-waves  NPLWV = 172032
   max r-space proj   IRMAX =   1488   max aug-charges    IRDMAX=   2322
   dimension x,y,z NGX =    42 NGY =   64 NGZ =   64
   dimension x,y,z NGXF=    84 NGYF=  128 NGZF=  128
   support grid    NGXF=    84 NGYF=  128 NGZF=  128
   ions per type =               6   1   7   2
   NGX,Y,Z   is equivalent  to a cutoff of   9.00,  9.07,  9.40 a.u.
   NGXF,Y,Z  is equivalent  to a cutoff of  18.00, 18.14, 18.80 a.u.

 SYSTEM =  QM9                                     
 POSCAR =  Generated POSCAR                        

 Startparameter for this run:
   NWRITE =      2    write-flag & timer
   PREC   = normal    normal or accurate (medium, high low for compatibility)
   ISTART =      0    job   : 0-new  1-cont  2-samecut
   ICHARG =      2    charge: 1-file 2-atom 10-const
   ISPIN  =      1    spin polarized calculation?
   LNONCOLLINEAR =      F non collinear calculations
   LSORBIT =      F    spin-orbit coupling
   INIWAV =      1    electr: 0-lowe 1-rand  2-diag
   LASPH  =      F    aspherical Exc in radial PAW
 Electronic Relaxation 1
   ENCUT  =  500.0 eV  36.75 Ry    6.06 a.u.  14.15 21.39 20.63*2*pi/ulx,y,z
   ENINI  =  500.0     initial cutoff
   ENAUG  =  644.9 eV  augmentation charge cutoff
   NELM   =    150;   NELMIN=  6; NELMDL=-20     # of ELM steps 
   EDIFF  = 0.1E-04   stopping-criterion for ELM
   LREAL  =      T    real-space projection
   NLSPLINE    = F    spline interpolate recip. space projectors
   LCOMPAT=      F    compatible to vasp.4.4
   GGA_COMPAT  = T    GGA compatible to vasp.4.4-vasp.4.6
   LMAXPAW     = -100 max onsite density
   LMAXMIX     =    2 max onsite mixed and CHGCAR
   VOSKOWN=      0    Vosko Wilk Nusair interpolation
   ROPT   =   -0.00050  -0.00050  -0.00050  -0.00050
 Ionic relaxation
   EDIFFG = -.2E-01   stopping-criterion for IOM
   NSW    =     10    number of steps for IOM
   NBLOCK =      1;   KBLOCK =     10    inner block; outer block 
   IBRION =      2    ionic relax: 0-MD 1-quasi-New 2-CG
   NFREE  =      1    steps in history (QN), initial steepest desc. (CG)
   ISIF   =      2    stress and relaxation
   IWAVPR =     11    prediction:  0-non 1-charg 2-wave 3-comb
   ISYM   =      0    0-nonsym 1-usesym 2-fastsym
   LCORR  =      T    Harris-Foulkes like correction to forces

   POTIM  = 0.2000    time-step for ionic-motion
   TEIN   =    0.0    initial temperature
   TEBEG  =    0.0;   TEEND  =   0.0 temperature during run
   SMASS  =  -3.00    Nose mass-parameter (am)
   estimated Nose-frequenzy (Omega)   =  0.10E-29 period in steps = 0.31E+47 mass=  -0.138E-26a.u.
   SCALEE = 1.0000    scale energy and forces
   NPACO  =    256;   APACO  = 10.0  distance and # of slots for P.C.
   PSTRESS=    0.0 pullay stress

  Mass of Ions in am
   POMASS =  12.01 19.00  1.00 14.00
  Ionic Valenz
   ZVAL   =   4.00  7.00  1.00  5.00
  Atomic Wigner-Seitz radii
   RWIGS  =  -1.00 -1.00 -1.00 -1.00
  virtual crystal weights 
   VCA    =   1.00  1.00  1.00  1.00
   NELECT =      48.0000    total number of electrons
   NUPDOWN=      -1.0000    fix difference up-down

 DOS related values:
   EMIN   =  10.00;   EMAX   =-10.00  energy-range for DOS
   EFERMI =   0.00;   METHOD = LEGACY      
   ISMEAR =     0;   SIGMA  =   0.10  broadening in eV -4-tet -1-fermi 0-gaus

 Electronic relaxation 2 (details)
   IALGO  =     48    algorithm
   LDIAG  =      T    sub-space diagonalisation (order eigenvalues)
   LSUBROT=      F    optimize rotation matrix (better conditioning)
   TURBO    =      0    0=normal 1=particle mesh
   IRESTART =      0    0=no restart 2=restart with 2 vectors
   NREBOOT  =      0    no. of reboots
   NMIN     =      0    reboot dimension
   EREF     =   0.00    reference energy to select bands
   IMIX   =      4    mixing-type and parameters
     AMIX     =   0.40;   BMIX     =  1.00
     AMIX_MAG =   1.60;   BMIX_MAG =  1.00
     AMIN     =   0.10
     WC   =   100.;   INIMIX=   1;  MIXPRE=   1;  MAXMIX= -45

 Intra band minimization:
   WEIMIN = 0.0010     energy-eigenvalue tresh-hold
   EBREAK =  0.69E-07  absolut break condition
   DEPER  =   0.30     relativ break condition  

   TIME   =   0.40     timestep for ELM

  volume/ion in A,a.u.               =      64.39       434.55
  Fermi-wavevector in a.u.,A,eV,Ry     =   0.589073  1.113186  4.721313  0.347007
  Thomas-Fermi vector in A             =   1.636584
 
 Write flags
   LWAVE        =      F    write WAVECAR
   LDOWNSAMPLE  =      F    k-point downsampling of WAVECAR
   LCHARG       =      F    write CHGCAR
   LVTOT        =      F    write LOCPOT, total local potential
   LVHAR        =      F    write LOCPOT, Hartree potential only
   LELF         =      F    write electronic localiz. function (ELF)
   LORBIT       =     11    0 simple, 1 ext, 2 COOP (PROOUT), +10 PAW based schemes


 Dipole corrections
   LMONO  =      F    monopole corrections only (constant potential shift)
   LDIPOL =      F    correct potential (dipole corrections)
   IDIPOL =      0    1-x, 2-y, 3-z, 4-all directions 
   EPSILON=  1.0000000 bulk dielectric constant

 Exchange correlation treatment:
   GGA     =    --    GGA type
   LEXCH   =     8    internal setting for exchange type
   LIBXC   =     F    Libxc                    
   VOSKOWN =     0    Vosko Wilk Nusair interpolation
   LHFCALC =     F    Hartree Fock is set to
   LHFONE  =     F    Hartree Fock one center treatment
   AEXX    =    0.0000 exact exchange contribution

 Linear response parameters
   LEPSILON=     F    determine dielectric tensor
   LRPA    =     F    only Hartree local field effects (RPA)
   LNABLA  =     F    use nabla operator in PAW spheres
   LVEL    =     F    velocity operator in full k-point grid
   CSHIFT  =0.1000    complex shift for real part using Kramers Kronig
   OMEGAMAX=  -1.0    maximum frequency
   DEG_THRESHOLD= 0.2000000E-02 threshold for treating states as degnerate
   RTIME   =   -0.100 relaxation time in fs
  (WPLASMAI=    0.000 imaginary part of plasma frequency in eV, 0.658/RTIME)
   DFIELD  = 0.0000000 0.0000000 0.0000000 field for delta impulse in time
 
  Optional k-point grid parameters
   LKPOINTS_OPT  =     F    use optional k-point grid
   KPOINTS_OPT_MODE=     1    mode for optional k-point grid
 
 Orbital magnetization related:
   ORBITALMAG=     F  switch on orbital magnetization
   LCHIMAG   =     F  perturbation theory with respect to B field
   DQ        =  0.001000  dq finite difference perturbation B field
   LLRAUG    =     F  two centre corrections for induced B field
   LBONE     =     F  B-component reconstruction in AE one-centre
   LVGVCALC  =     T  calculate vGv susceptibility
   LVGVAPPL  =     F  apply vGv susceptibility instead of pGv for G=0

 Random number generation:
   RANDOM_GENERATOR = DEFAULT
   PCG_SEED         = not used


--------------------------------------------------------------------------------------------------------


 conjugate gradient relaxation of ions
 charge density and potential will be updated during run
 non-spin polarized calculation
 RMM-DIIS sequential band-by-band
 perform sub-space diagonalisation
    before iterative eigenvector-optimisation
 modified Broyden-mixing scheme, WC =      100.0
 initial mixing is a Kerker type mixing with AMIX =  0.4000 and BMIX =      1.0000
 Hartree-type preconditioning will be used
 using additional bands           12
 real space projection scheme for non local part
 use partial core corrections
 calculate Harris-corrections to forces 
   (improved forces if not selfconsistent)
 use gradient corrections 
 use of overlap-Matrix (Vanderbilt PP)
 Gauss-broadening in eV      SIGMA  =   0.10


--------------------------------------------------------------------------------------------------------


  energy-cutoff  :      500.00
  volume of cell :     1030.29
      direct lattice vectors                 reciprocal lattice vectors
     7.759100000  0.000000000  0.000000000     0.128880927  0.000000000  0.000000000
     0.000000000 11.733400000  0.000000000     0.000000000  0.085226788  0.000000000
     0.000000000  0.000000000 11.316800000     0.000000000  0.000000000  0.088364202

  length of vectors
     7.759100000 11.733400000 11.316800000     0.128880927  0.085226788  0.088364202


 
 k-points in units of 2pi/SCALE and weight: K-Spacing Value to Generate K-Mesh: 0.00
   0.00000000  0.00000000  0.00000000       1.000
 
 k-points in reciprocal lattice and weights: K-Spacing Value to Generate K-Mesh: 0.00
   0.00000000  0.00000000  0.00000000       1.000
 
 position of ions in fractional coordinates (direct lattice) 
   0.49989045  0.71022040  0.54373144
   0.49998067  0.58205635  0.54586102
   0.50005800  0.51915898  0.44226283
   0.50017399  0.40030170  0.44177683
   0.50156590  0.34833893  0.55326594
   0.50047042  0.51886069  0.65062562
   0.50117926  0.57310754  0.33729500
   0.61335722  0.74368043  0.49779089
   0.38664278  0.74355259  0.49747278
   0.49961980  0.74431963  0.63356249
   0.53395368  0.38329896  0.26509261
   0.54181542  0.26024852  0.34012265
   0.50240363  0.25568037  0.55875336
   0.50019977  0.56337464  0.73490739
   0.49199005  0.33963727  0.33636717
   0.50166901  0.40532156  0.65492896
 
 position of ions in cartesian coordinates  (Angst):
   3.87870000  8.33330000  6.15330000
   3.87940000  6.82950000  6.17740000
   3.88000000  6.09150000  5.00500000
   3.88090000  4.69690000  4.99950000
   3.89170000  4.08720000  6.26120000
   3.88320000  6.08800000  7.36300000
   3.88870000  6.72450000  3.81710000
   4.75910000  8.72590000  5.63340000
   3.00000000  8.72440000  5.62980000
   3.87660000  8.73340000  7.16990000
   4.14300000  4.49740000  3.00000000
   4.20400000  3.05360000  3.84910000
   3.89820000  3.00000000  6.32330000
   3.88110000  6.61030000  8.31680000
   3.81740000  3.98510000  3.80660000
   3.89250000  4.75580000  7.41170000
 


--------------------------------------------------------------------------------------------------------


 use parallel FFT for orbitals z direction half grid
 k-point   1 :   0.0000 0.0000 0.0000  plane waves:   13072

 maximum and minimum number of plane-waves per node :      6538     6534

 maximum number of plane-waves:     13072
 maximum index in each direction: 
   IXMAX=   14   IYMAX=   21   IZMAX=   20
   IXMIN=  -14   IYMIN=  -21   IZMIN=    0


 real space projection operators:
  total allocation   :        767.67 KBytes
  max/ min on nodes  :        385.67        382.00


 parallel 3D FFT for wavefunctions:
    minimum data exchange during FFTs selected (reduces bandwidth)
 parallel 3D FFT for charge:
    minimum data exchange during FFTs selected (reduces bandwidth)


 total amount of memory used by VASP MPI-rank0    55969. kBytes
=======================================================================

   base      :      30000. kBytes
   nonlr-proj:        469. kBytes
   fftplans  :       7948. kBytes
   grid      :      16595. kBytes
   one-center:         12. kBytes
   wavefun   :        945. kBytes
 
     INWAV:  cpu time      0.0000: real time      0.0001
 Broyden mixing: mesh for mixing (old mesh)
   NGX = 29   NGY = 43   NGZ = 41
  (NGX  = 84   NGY  =128   NGZ  =128)
  gives a total of  51127 points

 initial charge density was supplied:
 charge density of overlapping atoms calculated
 number of electron      48.0000000 magnetization 
 keeping initial charge density in first step


--------------------------------------------------------------------------------------------------------


 Maximum index for non-local projection operator          694
 Maximum index for augmentation-charges          267 (set IRDMAX)


--------------------------------------------------------------------------------------------------------


 First call to EWALD:  gamma=   0.175
 Maximum number of real-space cells 3x 2x 3
 Maximum number of reciprocal cells 2x 3x 3

    FEWALD:  cpu time      0.0014: real time      0.0014


--------------------------------------- Ionic step        1  -------------------------------------------




--------------------------------------- Iteration      1(   1)  ---------------------------------------


    POTLOK:  cpu time      0.1953: real time      0.2251
    SETDIJ:  cpu time      0.0054: real time      0.0344
    EDDIAG:  cpu time      0.1420: real time      0.3581
  RMM-DIIS:  cpu time      0.1806: real time      0.1836
    ORTHCH:  cpu time      0.0055: real time      0.0056
       DOS:  cpu time      0.0006: real time      0.0038
    --------------------------------------------
      LOOP:  cpu time      0.5295: real time      0.8106

 eigenvalue-minimisations  :    36
 total energy-change (2. order) : 0.7920849E+03  (-0.1073257E+04)
 number of electron      48.0000000 magnetization 
 augmentation part       48.0000000 magnetization 

 Free energy of the ion-electron system (eV)
  ---------------------------------------------------
  alpha Z        PSCENC =         9.71200593
  Ewald energy   TEWEN  =      1906.70096774
  -Hartree energ DENC   =     -3537.57336311
  -exchange      EXHF   =         0.00000000
  -V(xc)+E(xc)   XCENC  =       171.52942128
  PAW double counting   =      1615.14374411    -1626.10587105
  entropy T*S    EENTRO =        -0.00000000
  eigenvalues    EBANDS =        93.70065765
  atomic energy  EATOM  =      2158.97731088
  Solvation  Ediel_sol  =         0.00000000
  ---------------------------------------------------
  free energy    TOTEN  =       792.08487343 eV

  energy without entropy =      792.08487343  energy(sigma->0) =      792.08487343


--------------------------------------------------------------------------------------------------------




--------------------------------------- Iteration      1(   2)  ---------------------------------------


    EDDIAG:  cpu time      0.0891: real time      0.1003
  RMM-DIIS:  cpu time      0.1735: real time      0.1760
    ORTHCH:  cpu time      0.0049: real time      0.0050
       DOS:  cpu time      0.0004: real time      0.0004
    --------------------------------------------
      LOOP:  cpu time      0.2679: real time      0.2817

 eigenvalue-minimisations  :    36
 total energy-change (2. order) :-0.3836101E+03  (-0.4405191E+03)
 number of electron      48.0000000 magnetization 
 augmentation part       48.0000000 magnetization 

 Free energy of the ion-electron system (eV)
  ---------------------------------------------------
  alpha Z        PSCENC =         9.71200593
  Ewald energy   TEWEN  =      1906.70096774
  -Hartree energ DENC   =     -3537.57336311
  -exchange      EXHF   =         0.00000000
  -V(xc)+E(xc)   XCENC  =       171.52942128
  PAW double counting   =      1615.14374411    -1626.10587105
  entropy T*S    EENTRO =        -0.07640503
  eigenvalues    EBANDS =      -289.83307552
  atomic energy  EATOM  =      2158.97731088
  Solvation  Ediel_sol  =         0.00000000
  ---------------------------------------------------
  free energy    TOTEN  =       408.47473523 eV

  energy without entropy =      408.55114026  energy(sigma->0) =      408.51293774


--------------------------------------------------------------------------------------------------------




--------------------------------------- Iteration      1(   3)  ---------------------------------------


    EDDIAG:  cpu time      0.0761: real time      0.0778
  RMM-DIIS:  cpu time      0.1673: real time      0.1696
    ORTHCH:  cpu time      0.0057: real time      0.0057
       DOS:  cpu time      0.0005: real time      0.0005
    --------------------------------------------
      LOOP:  cpu time      0.2495: real time      0.2537

 eigenvalue-minimisations  :    36
 total energy-change (2. order) :-0.1622445E+03  (-0.2590006E+03)
 number of electron      48.0000000 magnetization 
 augmentation part       48.0000000 magnetization 

 Free energy of the ion-electron system (eV)
  ---------------------------------------------------
  alpha Z        PSCENC =         9.71200593
  Ewald energy   TEWEN  =      1906.70096774
  -Hartree energ DENC   =     -3537.57336311
  -exchange      EXHF   =         0.00000000
  -V(xc)+E(xc)   XCENC  =       171.52942128
  PAW double counting   =      1615.14374411    -1626.10587105
  entropy T*S    EENTRO =        -0.03868734
  eigenvalues    EBANDS =      -452.11531308
  atomic energy  EATOM  =      2158.97731088
  Solvation  Ediel_sol  =         0.00000000
  ---------------------------------------------------
  free energy    TOTEN  =       246.23021536 eV

  energy without entropy =      246.26890270  energy(sigma->0) =      246.24955903


--------------------------------------------------------------------------------------------------------




--------------------------------------- Iteration      1(   4)  ---------------------------------------


    EDDIAG:  cpu time      0.0760: real time      0.0775
  RMM-DIIS:  cpu time      0.1695: real time      0.1720
    ORTHCH:  cpu time      0.0045: real time      0.0046
       DOS:  cpu time      0.0002: real time      0.0002
    --------------------------------------------
      LOOP:  cpu time      0.2502: real time      0.2543

 eigenvalue-minimisations  :    36
 total energy-change (2. order) :-0.1706689E+03  (-0.1738405E+03)
 number of electron      48.0000000 magnetization 
 augmentation part       48.0000000 magnetization 

 Free energy of the ion-electron system (eV)
  ---------------------------------------------------
  alpha Z        PSCENC =         9.71200593
  Ewald energy   TEWEN  =      1906.70096774
  -Hartree energ DENC   =     -3537.57336311
  -exchange      EXHF   =         0.00000000
  -V(xc)+E(xc)   XCENC  =       171.52942128
  PAW double counting   =      1615.14374411    -1626.10587105
  entropy T*S    EENTRO =        -0.00000090
  eigenvalues    EBANDS =      -622.82290285
  atomic energy  EATOM  =      2158.97731088
  Solvation  Ediel_sol  =         0.00000000
  ---------------------------------------------------
  free energy    TOTEN  =        75.56131203 eV

  energy without entropy =       75.56131293  energy(sigma->0) =       75.56131248


--------------------------------------------------------------------------------------------------------




--------------------------------------- Iteration      1(   5)  ---------------------------------------


    EDDIAG:  cpu time      0.0791: real time      0.0810
  RMM-DIIS:  cpu time      0.1675: real time      0.1700
    ORTHCH:  cpu time      0.0048: real time      0.0048
       DOS:  cpu time      0.0003: real time      0.0003
    --------------------------------------------
      LOOP:  cpu time      0.2517: real time      0.2561

 eigenvalue-minimisations  :    36
 total energy-change (2. order) :-0.8301215E+02  (-0.8194678E+02)
 number of electron      48.0000000 magnetization 
 augmentation part       48.0000000 magnetization 

 Free energy of the ion-electron system (eV)
  ---------------------------------------------------
  alpha Z        PSCENC =         9.71200593
  Ewald energy   TEWEN  =      1906.70096774
  -Hartree energ DENC   =     -3537.57336311
  -exchange      EXHF   =         0.00000000
  -V(xc)+E(xc)   XCENC  =       171.52942128
  PAW double counting   =      1615.14374411    -1626.10587105
  entropy T*S    EENTRO =        -0.06339065
  eigenvalues    EBANDS =      -705.77166295
  atomic energy  EATOM  =      2158.97731088
  Solvation  Ediel_sol  =         0.00000000
  ---------------------------------------------------
  free energy    TOTEN  =        -7.45083782 eV

  energy without entropy =       -7.38744717  energy(sigma->0) =       -7.41914250


--------------------------------------------------------------------------------------------------------




--------------------------------------- Iteration      1(   6)  ---------------------------------------


    EDDIAG:  cpu time      0.0777: real time      0.0796
  RMM-DIIS:  cpu time      0.1683: real time      0.1706
    ORTHCH:  cpu time      0.0047: real time      0.0047
       DOS:  cpu time      0.0003: real time      0.0003
    --------------------------------------------
      LOOP:  cpu time      0.2509: real time      0.2552

 eigenvalue-minimisations  :    36
 total energy-change (2. order) :-0.6159209E+02  (-0.4954624E+02)
 number of electron      48.0000000 magnetization 
 augmentation part       48.0000000 magnetization 

 Free energy of the ion-electron system (eV)
  ---------------------------------------------------
  alpha Z        PSCENC =         9.71200593
  Ewald energy   TEWEN  =      1906.70096774
  -Hartree energ DENC   =     -3537.57336311
  -exchange      EXHF   =         0.00000000
  -V(xc)+E(xc)   XCENC  =       171.52942128
  PAW double counting   =      1615.14374411    -1626.10587105
  entropy T*S    EENTRO =        -0.00016961
  eigenvalues    EBANDS =      -767.42697677
  atomic energy  EATOM  =      2158.97731088
  Solvation  Ediel_sol  =         0.00000000
  ---------------------------------------------------
  free energy    TOTEN  =       -69.04293060 eV

  energy without entropy =      -69.04276099  energy(sigma->0) =      -69.04284579


--------------------------------------------------------------------------------------------------------




--------------------------------------- Iteration      1(   7)  ---------------------------------------


    EDDIAG:  cpu time      0.0805: real time      0.0823
  RMM-DIIS:  cpu time      0.1665: real time      0.1688
    ORTHCH:  cpu time      0.0051: real time      0.0052
       DOS:  cpu time      0.0004: real time      0.0004
    --------------------------------------------
      LOOP:  cpu time      0.2525: real time      0.2567

 eigenvalue-minimisations  :    36
 total energy-change (2. order) :-0.2533463E+02  (-0.1563449E+02)
 number of electron      48.0000000 magnetization 
 augmentation part       48.0000000 magnetization 

 Free energy of the ion-electron system (eV)
  ---------------------------------------------------
  alpha Z        PSCENC =         9.71200593
  Ewald energy   TEWEN  =      1906.70096774
  -Hartree energ DENC   =     -3537.57336311
  -exchange      EXHF   =         0.00000000
  -V(xc)+E(xc)   XCENC  =       171.52942128
  PAW double counting   =      1615.14374411    -1626.10587105
  entropy T*S    EENTRO =        -0.00000000
  eigenvalues    EBANDS =      -792.76178132
  atomic energy  EATOM  =      2158.97731088
  Solvation  Ediel_sol  =         0.00000000
  ---------------------------------------------------
  free energy    TOTEN  =       -94.37756554 eV

  energy without entropy =      -94.37756554  energy(sigma->0) =      -94.37756554


--------------------------------------------------------------------------------------------------------




--------------------------------------- Iteration      1(   8)  ---------------------------------------


    EDDIAG:  cpu time      0.0819: real time      0.0836
  RMM-DIIS:  cpu time      0.1714: real time      0.1738
    ORTHCH:  cpu time      0.0033: real time      0.0034
       DOS:  cpu time      0.0001: real time      0.0001
    --------------------------------------------
      LOOP:  cpu time      0.2568: real time      0.2609

 eigenvalue-minimisations  :    36
 total energy-change (2. order) :-0.1027494E+02  (-0.8713278E+01)
 number of electron      48.0000000 magnetization 
 augmentation part       48.0000000 magnetization 

 Free energy of the ion-electron system (eV)
  ---------------------------------------------------
  alpha Z        PSCENC =         9.71200593
  Ewald energy   TEWEN  =      1906.70096774
  -Hartree energ DENC   =     -3537.57336311
  -exchange      EXHF   =         0.00000000
  -V(xc)+E(xc)   XCENC  =       171.52942128
  PAW double counting   =      1615.14374411    -1626.10587105
  entropy T*S    EENTRO =        -0.00000000
  eigenvalues    EBANDS =      -803.03672612
  atomic energy  EATOM  =      2158.97731088
  Solvation  Ediel_sol  =         0.00000000
  ---------------------------------------------------
  free energy    TOTEN  =      -104.65251034 eV

  energy without entropy =     -104.65251034  energy(sigma->0) =     -104.65251034


--------------------------------------------------------------------------------------------------------




--------------------------------------- Iteration      1(   9)  ---------------------------------------


    EDDIAG:  cpu time      0.0748: real time      0.0761
  RMM-DIIS:  cpu time      0.1707: real time      0.1731
    ORTHCH:  cpu time      0.0047: real time      0.0048
       DOS:  cpu time      0.0003: real time      0.0003
    --------------------------------------------
      LOOP:  cpu time      0.2505: real time      0.2543

 eigenvalue-minimisations  :    36
 total energy-change (2. order) :-0.3604505E+01  (-0.3139994E+01)
 number of electron      48.0000000 magnetization 
 augmentation part       48.0000000 magnetization 

 Free energy of the ion-electron system (eV)
  ---------------------------------------------------
  alpha Z        PSCENC =         9.71200593
  Ewald energy   TEWEN  =      1906.70096774
  -Hartree energ DENC   =     -3537.57336311
  -exchange      EXHF   =         0.00000000
  -V(xc)+E(xc)   XCENC  =       171.52942128
  PAW double counting   =      1615.14374411    -1626.10587105
  entropy T*S    EENTRO =        -0.00000000
  eigenvalues    EBANDS =      -806.64123151
  atomic energy  EATOM  =      2158.97731088
  Solvation  Ediel_sol  =         0.00000000
  ---------------------------------------------------
  free energy    TOTEN  =      -108.25701573 eV

  energy without entropy =     -108.25701573  energy(sigma->0) =     -108.25701573


--------------------------------------------------------------------------------------------------------




--------------------------------------- Iteration      1(  10)  ---------------------------------------


    EDDIAG:  cpu time      0.0695: real time      0.0710
  RMM-DIIS:  cpu time      0.1760: real time      0.1785
    ORTHCH:  cpu time      0.0048: real time      0.0049
       DOS:  cpu time      0.0003: real time      0.0003
    --------------------------------------------
      LOOP:  cpu time      0.2507: real time      0.2547

 eigenvalue-minimisations  :    36
 total energy-change (2. order) :-0.1171193E+01  (-0.9976993E+00)
 number of electron      48.0000000 magnetization 
 augmentation part       48.0000000 magnetization 

 Free energy of the ion-electron system (eV)
  ---------------------------------------------------
  alpha Z        PSCENC =         9.71200593
  Ewald energy   TEWEN  =      1906.70096774
  -Hartree energ DENC   =     -3537.57336311
  -exchange      EXHF   =         0.00000000
  -V(xc)+E(xc)   XCENC  =       171.52942128
  PAW double counting   =      1615.14374411    -1626.10587105
  entropy T*S    EENTRO =        -0.00000000
  eigenvalues    EBANDS =      -807.81242427
  atomic energy  EATOM  =      2158.97731088
  Solvation  Ediel_sol  =         0.00000000
  ---------------------------------------------------
  free energy    TOTEN  =      -109.42820849 eV

  energy without entropy =     -109.42820849  energy(sigma->0) =     -109.42820849


--------------------------------------------------------------------------------------------------------




--------------------------------------- Iteration      1(  11)  ---------------------------------------


    EDDIAG:  cpu time      0.0750: real time      0.0763
  RMM-DIIS:  cpu time      0.1785: real time      0.1811
    ORTHCH:  cpu time      0.0048: real time      0.0048
       DOS:  cpu time      0.0002: real time      0.0002
    --------------------------------------------
      LOOP:  cpu time      0.2585: real time      0.2624

 eigenvalue-minimisations  :    36
 total energy-change (2. order) :-0.3789771E+00  (-0.3559524E+00)
 number of electron      48.0000000 magnetization 
 augmentation part       48.0000000 magnetization 

 Free energy of the ion-electron system (eV)
  ---------------------------------------------------
  alpha Z        PSCENC =         9.71200593
  Ewald energy   TEWEN  =      1906.70096774
  -Hartree energ DENC   =     -3537.57336311
  -exchange      EXHF   =         0.00000000
  -V(xc)+E(xc)   XCENC  =       171.52942128
  PAW double counting   =      1615.14374411    -1626.10587105
  entropy T*S    EENTRO =        -0.00000000
  eigenvalues    EBANDS =      -808.19140133
  atomic energy  EATOM  =      2158.97731088
  Solvation  Ediel_sol  =         0.00000000
  ---------------------------------------------------
  free energy    TOTEN  =      -109.80718555 eV

  energy without entropy =     -109.80718555  energy(sigma->0) =     -109.80718555


--------------------------------------------------------------------------------------------------------




--------------------------------------- Iteration      1(  12)  ---------------------------------------


    EDDIAG:  cpu time      0.0755: real time      0.0772
  RMM-DIIS:  cpu time      0.1718: real time      0.1743
    ORTHCH:  cpu time      0.0048: real time      0.0048
       DOS:  cpu time      0.0003: real time      0.0003
    --------------------------------------------
      LOOP:  cpu time      0.2523: real time      0.2566

 eigenvalue-minimisations  :    36
 total energy-change (2. order) :-0.1689773E+00  (-0.1315665E+00)
 number of electron      48.0000000 magnetization 
 augmentation part       48.0000000 magnetization 

 Free energy of the ion-electron system (eV)
  ---------------------------------------------------
  alpha Z        PSCENC =         9.71200593
  Ewald energy   TEWEN  =      1906.70096774
  -Hartree energ DENC   =     -3537.57336311
  -exchange      EXHF   =         0.00000000
  -V(xc)+E(xc)   XCENC  =       171.52942128
  PAW double counting   =      1615.14374411    -1626.10587105
  entropy T*S    EENTRO =        -0.00000000
  eigenvalues    EBANDS =      -808.36037858
  atomic energy  EATOM  =      2158.97731088
  Solvation  Ediel_sol  =         0.00000000
  ---------------------------------------------------
  free energy    TOTEN  =      -109.97616280 eV

  energy without entropy =     -109.97616280  energy(sigma->0) =     -109.97616280


--------------------------------------------------------------------------------------------------------




--------------------------------------- Iteration      1(  13)  ---------------------------------------


    EDDIAG:  cpu time      0.0727: real time      0.0742
  RMM-DIIS:  cpu time      0.1708: real time      0.1735
    ORTHCH:  cpu time      0.0045: real time      0.0046
       DOS:  cpu time      0.0002: real time      0.0002
    --------------------------------------------
      LOOP:  cpu time      0.2482: real time      0.2524

 eigenvalue-minimisations  :    36
 total energy-change (2. order) :-0.5594854E-01  (-0.5190417E-01)
 number of electron      48.0000000 magnetization 
 augmentation part       48.0000000 magnetization 

 Free energy of the ion-electron system (eV)
  ---------------------------------------------------
  alpha Z        PSCENC =         9.71200593
  Ewald energy   TEWEN  =      1906.70096774
  -Hartree energ DENC   =     -3537.57336311
  -exchange      EXHF   =         0.00000000
  -V(xc)+E(xc)   XCENC  =       171.52942128
  PAW double counting   =      1615.14374411    -1626.10587105
  entropy T*S    EENTRO =        -0.00000000
  eigenvalues    EBANDS =      -808.41632712
  atomic energy  EATOM  =      2158.97731088
  Solvation  Ediel_sol  =         0.00000000
  ---------------------------------------------------
  free energy    TOTEN  =      -110.03211134 eV

  energy without entropy =     -110.03211134  energy(sigma->0) =     -110.03211134


--------------------------------------------------------------------------------------------------------




--------------------------------------- Iteration      1(  14)  ---------------------------------------


    EDDIAG:  cpu time      0.0778: real time      0.0795
  RMM-DIIS:  cpu time      0.1755: real time      0.1780
    ORTHCH:  cpu time      0.0050: real time      0.0050
       DOS:  cpu time      0.0003: real time      0.0003
    --------------------------------------------
      LOOP:  cpu time      0.2585: real time      0.2628

 eigenvalue-minimisations  :    36
 total energy-change (2. order) :-0.2309284E-01  (-0.2142845E-01)
 number of electron      48.0000000 magnetization 
 augmentation part       48.0000000 magnetization 

 Free energy of the ion-electron system (eV)
  ---------------------------------------------------
  alpha Z        PSCENC =         9.71200593
  Ewald energy   TEWEN  =      1906.70096774
  -Hartree energ DENC   =     -3537.57336311
  -exchange      EXHF   =         0.00000000
  -V(xc)+E(xc)   XCENC  =       171.52942128
  PAW double counting   =      1615.14374411    -1626.10587105
  entropy T*S    EENTRO =        -0.00000000
  eigenvalues    EBANDS =      -808.43941996
  atomic energy  EATOM  =      2158.97731088
  Solvation  Ediel_sol  =         0.00000000
  ---------------------------------------------------
  free energy    TOTEN  =      -110.05520418 eV

  energy without entropy =     -110.05520418  energy(sigma->0) =     -110.05520418


--------------------------------------------------------------------------------------------------------




--------------------------------------- Iteration      1(  15)  ---------------------------------------


    EDDIAG:  cpu time      0.0779: real time      0.0798
  RMM-DIIS:  cpu time      0.3277: real time      0.3345
    ORTHCH:  cpu time      0.0043: real time      0.0044
       DOS:  cpu time      0.0003: real time      0.0003
    --------------------------------------------
      LOOP:  cpu time      0.4102: real time      0.4191

 eigenvalue-minimisations  :    80
 total energy-change (2. order) :-0.1363252E-01  (-0.1328843E-01)
 number of electron      48.0000000 magnetization 
 augmentation part       48.0000000 magnetization 

 Free energy of the ion-electron system (eV)
  ---------------------------------------------------
  alpha Z        PSCENC =         9.71200593
  Ewald energy   TEWEN  =      1906.70096774
  -Hartree energ DENC   =     -3537.57336311
  -exchange      EXHF   =         0.00000000
  -V(xc)+E(xc)   XCENC  =       171.52942128
  PAW double counting   =      1615.14374411    -1626.10587105
  entropy T*S    EENTRO =        -0.00000000
  eigenvalues    EBANDS =      -808.45305248
  atomic energy  EATOM  =      2158.97731088
  Solvation  Ediel_sol  =         0.00000000
  ---------------------------------------------------
  free energy    TOTEN  =      -110.06883670 eV

  energy without entropy =     -110.06883670  energy(sigma->0) =     -110.06883670


--------------------------------------------------------------------------------------------------------




--------------------------------------- Iteration      1(  16)  ---------------------------------------


    EDDIAG:  cpu time      0.0723: real time      0.0738
  RMM-DIIS:  cpu time      0.3248: real time      0.3296
    ORTHCH:  cpu time      0.0033: real time      0.0033
       DOS:  cpu time      0.0003: real time      0.0003
    --------------------------------------------
      LOOP:  cpu time      0.4007: real time      0.4070

 eigenvalue-minimisations  :    80
 total energy-change (2. order) :-0.2402739E-02  (-0.2249136E-02)
 number of electron      48.0000000 magnetization 
 augmentation part       48.0000000 magnetization 

 Free energy of the ion-electron system (eV)
  ---------------------------------------------------
  alpha Z        PSCENC =         9.71200593
  Ewald energy   TEWEN  =      1906.70096774
  -Hartree energ DENC   =     -3537.57336311
  -exchange      EXHF   =         0.00000000
  -V(xc)+E(xc)   XCENC  =       171.52942128
  PAW double counting   =      1615.14374411    -1626.10587105
  entropy T*S    EENTRO =        -0.00000000
  eigenvalues    EBANDS =      -808.45545522
  atomic energy  EATOM  =      2158.97731088
  Solvation  Ediel_sol  =         0.00000000
  ---------------------------------------------------
  free energy    TOTEN  =      -110.07123944 eV

  energy without entropy =     -110.07123944  energy(sigma->0) =     -110.07123944


--------------------------------------------------------------------------------------------------------




--------------------------------------- Iteration      1(  17)  ---------------------------------------


    EDDIAG:  cpu time      0.0753: real time      0.0768
  RMM-DIIS:  cpu time      0.3585: real time      0.3629
    ORTHCH:  cpu time      0.0034: real time      0.0034
       DOS:  cpu time      0.0001: real time      0.0001
    --------------------------------------------
      LOOP:  cpu time      0.4373: real time      0.4432

 eigenvalue-minimisations  :    78
 total energy-change (2. order) :-0.5267749E-03  (-0.4623247E-03)
 number of electron      48.0000000 magnetization 
 augmentation part       48.0000000 magnetization 

 Free energy of the ion-electron system (eV)
  ---------------------------------------------------
  alpha Z        PSCENC =         9.71200593
  Ewald energy   TEWEN  =      1906.70096774
  -Hartree energ DENC   =     -3537.57336311
  -exchange      EXHF   =         0.00000000
  -V(xc)+E(xc)   XCENC  =       171.52942128
  PAW double counting   =      1615.14374411    -1626.10587105
  entropy T*S    EENTRO =        -0.00000000
  eigenvalues    EBANDS =      -808.45598200
  atomic energy  EATOM  =      2158.97731088
  Solvation  Ediel_sol  =         0.00000000
  ---------------------------------------------------
  free energy    TOTEN  =      -110.07176622 eV

  energy without entropy =     -110.07176622  energy(sigma->0) =     -110.07176622


--------------------------------------------------------------------------------------------------------




--------------------------------------- Iteration      1(  18)  ---------------------------------------


    EDDIAG:  cpu time      0.0757: real time      0.0773
  RMM-DIIS:  cpu time      0.2433: real time      0.2467
    ORTHCH:  cpu time      0.0050: real time      0.0050
       DOS:  cpu time      0.0003: real time      0.0003
    --------------------------------------------
      LOOP:  cpu time      0.3243: real time      0.3294

 eigenvalue-minimisations  :    55
 total energy-change (2. order) :-0.1870835E-04  (-0.1092085E-04)
 number of electron      48.0000000 magnetization 
 augmentation part       48.0000000 magnetization 

 Free energy of the ion-electron system (eV)
  ---------------------------------------------------
  alpha Z        PSCENC =         9.71200593
  Ewald energy   TEWEN  =      1906.70096774
  -Hartree energ DENC   =     -3537.57336311
  -exchange      EXHF   =         0.00000000
  -V(xc)+E(xc)   XCENC  =       171.52942128
  PAW double counting   =      1615.14374411    -1626.10587105
  entropy T*S    EENTRO =        -0.00000000
  eigenvalues    EBANDS =      -808.45600070
  atomic energy  EATOM  =      2158.97731088
  Solvation  Ediel_sol  =         0.00000000
  ---------------------------------------------------
  free energy    TOTEN  =      -110.07178492 eV

  energy without entropy =     -110.07178492  energy(sigma->0) =     -110.07178492


--------------------------------------------------------------------------------------------------------




--------------------------------------- Iteration      1(  19)  ---------------------------------------


    EDDIAG:  cpu time      0.0804: real time      0.0820
  RMM-DIIS:  cpu time      0.2085: real time      0.2118
    ORTHCH:  cpu time      0.0044: real time      0.0045
       DOS:  cpu time      0.0002: real time      0.0002
    --------------------------------------------
      LOOP:  cpu time      0.2934: real time      0.2985

 eigenvalue-minimisations  :    49
 total energy-change (2. order) :-0.8332117E-06  (-0.6905059E-06)
 number of electron      48.0000000 magnetization 
 augmentation part       48.0000000 magnetization 

 Free energy of the ion-electron system (eV)
  ---------------------------------------------------
  alpha Z        PSCENC =         9.71200593
  Ewald energy   TEWEN  =      1906.70096774
  -Hartree energ DENC   =     -3537.57336311
  -exchange      EXHF   =         0.00000000
  -V(xc)+E(xc)   XCENC  =       171.52942128
  PAW double counting   =      1615.14374411    -1626.10587105
  entropy T*S    EENTRO =        -0.00000000
  eigenvalues    EBANDS =      -808.45600154
  atomic energy  EATOM  =      2158.97731088
  Solvation  Ediel_sol  =         0.00000000
  ---------------------------------------------------
  free energy    TOTEN  =      -110.07178576 eV

  energy without entropy =     -110.07178576  energy(sigma->0) =     -110.07178576


--------------------------------------------------------------------------------------------------------




--------------------------------------- Iteration      1(  20)  ---------------------------------------


    EDDIAG:  cpu time      0.0808: real time      0.0826
  RMM-DIIS:  cpu time      0.1964: real time      0.1988
    ORTHCH:  cpu time      0.0094: real time      0.0095
       DOS:  cpu time      0.0002: real time      0.0002
    CHARGE:  cpu time      0.0387: real time      0.0393
    MIXING:  cpu time      0.0105: real time      0.0215
    --------------------------------------------
      LOOP:  cpu time      0.3361: real time      0.3519

 eigenvalue-minimisations  :    45
 total energy-change (2. order) :-0.2911038E-06  (-0.2864122E-06)
 number of electron      48.0000004 magnetization 
 augmentation part        2.6906443 magnetization 

 Broyden mixing:
  rms(total) = 0.17101E+01    rms(broyden)= 0.17092E+01
  rms(prec ) = 0.21101E+01
  weight for this iteration     100.00

 Free energy of the ion-electron system (eV)
  ---------------------------------------------------
  alpha Z        PSCENC =         9.71200593
  Ewald energy   TEWEN  =      1906.70096774
  -Hartree energ DENC   =     -3537.57336311
  -exchange      EXHF   =         0.00000000
  -V(xc)+E(xc)   XCENC  =       171.52942128
  PAW double counting   =      1615.14374411    -1626.10587105
  entropy T*S    EENTRO =        -0.00000000
  eigenvalues    EBANDS =      -808.45600183
  atomic energy  EATOM  =      2158.97731088
  Solvation  Ediel_sol  =         0.00000000
  ---------------------------------------------------
  free energy    TOTEN  =      -110.07178605 eV

  energy without entropy =     -110.07178605  energy(sigma->0) =     -110.07178605


--------------------------------------------------------------------------------------------------------




--------------------------------------- Iteration      1(  21)  ---------------------------------------


    POTLOK:  cpu time      0.2109: real time      0.2146
    SETDIJ:  cpu time      0.0031: real time      0.0031
    EDDIAG:  cpu time      0.0790: real time      0.0802
  RMM-DIIS:  cpu time      0.4259: real time      0.4325
    ORTHCH:  cpu time      0.0050: real time      0.0050
       DOS:  cpu time      0.0003: real time      0.0003
    CHARGE:  cpu time      0.0360: real time      0.0365
    MIXING:  cpu time      0.0117: real time      0.0143
    --------------------------------------------
      LOOP:  cpu time      0.7718: real time      0.7865

 eigenvalue-minimisations  :   120
 total energy-change (2. order) : 0.7715530E+01  (-0.1403651E+01)
 number of electron      48.0000004 magnetization 
 augmentation part        2.5326923 magnetization 

 Broyden mixing:
  rms(total) = 0.92873E+00    rms(broyden)= 0.92863E+00
  rms(prec ) = 0.10818E+01
  weight for this iteration     100.00

 eigenvalues of (default mixing * dielectric matrix)
  average eigenvalue GAMMA=   1.3978
  1.3978

 Free energy of the ion-electron system (eV)
  ---------------------------------------------------
  alpha Z        PSCENC =         9.71200593
  Ewald energy   TEWEN  =      1906.70096774
  -Hartree energ DENC   =     -3622.16335160
  -exchange      EXHF   =         0.00000000
  -V(xc)+E(xc)   XCENC  =       175.77198577
  PAW double counting   =      2484.07016451    -2496.08262316
  entropy T*S    EENTRO =        -0.00000000
  eigenvalues    EBANDS =      -719.34271641
  atomic energy  EATOM  =      2158.97731088
  Solvation  Ediel_sol  =         0.00000000
  ---------------------------------------------------
  free energy    TOTEN  =      -102.35625634 eV

  energy without entropy =     -102.35625634  energy(sigma->0) =     -102.35625634


--------------------------------------------------------------------------------------------------------




--------------------------------------- Iteration      1(  22)  ---------------------------------------


    POTLOK:  cpu time      0.2165: real time      0.2196
    SETDIJ:  cpu time      0.0049: real time      0.0050
    EDDIAG:  cpu time      0.0834: real time      0.0845
  RMM-DIIS:  cpu time      0.4414: real time      0.4481
    ORTHCH:  cpu time      0.0028: real time      0.0028
       DOS:  cpu time      0.0001: real time      0.0001
    CHARGE:  cpu time      0.0328: real time      0.0332
    MIXING:  cpu time      0.0079: real time      0.0080
    --------------------------------------------
      LOOP:  cpu time      0.7900: real time      0.8014

 eigenvalue-minimisations  :   120
 total energy-change (2. order) : 0.1731776E+01  (-0.2648407E+00)
 number of electron      48.0000004 magnetization 
 augmentation part        2.4901665 magnetization 

 Broyden mixing:
  rms(total) = 0.41955E+00    rms(broyden)= 0.41952E+00
  rms(prec ) = 0.47645E+00
  weight for this iteration     100.00

 eigenvalues of (default mixing * dielectric matrix)
  average eigenvalue GAMMA=   1.6304
  1.1069  2.1540

 Free energy of the ion-electron system (eV)
  ---------------------------------------------------
  alpha Z        PSCENC =         9.71200593
  Ewald energy   TEWEN  =      1906.70096774
  -Hartree energ DENC   =     -3677.17560220
  -exchange      EXHF   =         0.00000000
  -V(xc)+E(xc)   XCENC  =       178.54058465
  PAW double counting   =      3473.33768131    -3485.80841686
  entropy T*S    EENTRO =        -0.00000000
  eigenvalues    EBANDS =      -664.90901182
  atomic energy  EATOM  =      2158.97731088
  Solvation  Ediel_sol  =         0.00000000
  ---------------------------------------------------
  free energy    TOTEN  =      -100.62448038 eV

  energy without entropy =     -100.62448038  energy(sigma->0) =     -100.62448038


--------------------------------------------------------------------------------------------------------




--------------------------------------- Iteration      1(  23)  ---------------------------------------


    POTLOK:  cpu time      0.1986: real time      0.2013
    SETDIJ:  cpu time      0.0033: real time      0.0034
    EDDIAG:  cpu time      0.0818: real time      0.0830
  RMM-DIIS:  cpu time      0.4849: real time      0.4921
    ORTHCH:  cpu time      0.0051: real time      0.0051
       DOS:  cpu time      0.0002: real time      0.0002
    CHARGE:  cpu time      0.0308: real time      0.0312
    MIXING:  cpu time      0.0092: real time      0.0093
    --------------------------------------------
      LOOP:  cpu time      0.8137: real time      0.8254

 eigenvalue-minimisations  :   120
 total energy-change (2. order) : 0.3101853E+00  (-0.4623050E-01)
 number of electron      48.0000004 magnetization 
 augmentation part        2.4656074 magnetization 

 Broyden mixing:
  rms(total) = 0.12010E+00    rms(broyden)= 0.12007E+00
  rms(prec ) = 0.15510E+00
  weight for this iteration     100.00

 eigenvalues of (default mixing * dielectric matrix)
  average eigenvalue GAMMA=   1.5612
  2.2142  0.9219  1.5474

 Free energy of the ion-electron system (eV)
  ---------------------------------------------------
  alpha Z        PSCENC =         9.71200593
  Ewald energy   TEWEN  =      1906.70096774
  -Hartree energ DENC   =     -3707.36749241
  -exchange      EXHF   =         0.00000000
  -V(xc)+E(xc)   XCENC  =       180.13972368
  PAW double counting   =      4208.03813310    -4220.60113723
  entropy T*S    EENTRO =        -0.00000000
  eigenvalues    EBANDS =      -635.91380673
  atomic energy  EATOM  =      2158.97731088
  Solvation  Ediel_sol  =         0.00000000
  ---------------------------------------------------
  free energy    TOTEN  =      -100.31429504 eV

  energy without entropy =     -100.31429504  energy(sigma->0) =     -100.31429504


--------------------------------------------------------------------------------------------------------




--------------------------------------- Iteration      1(  24)  ---------------------------------------


    POTLOK:  cpu time      0.1768: real time      0.1790
    SETDIJ:  cpu time      0.0030: real time      0.0030
    EDDIAG:  cpu time      0.0707: real time      0.0717
  RMM-DIIS:  cpu time      0.4395: real time      0.4456
    ORTHCH:  cpu time      0.0047: real time      0.0048
       DOS:  cpu time      0.0003: real time      0.0003
    CHARGE:  cpu time      0.0321: real time      0.0324
    MIXING:  cpu time      0.0115: real time      0.0116
    --------------------------------------------
      LOOP:  cpu time      0.7386: real time      0.7486

 eigenvalue-minimisations  :   102
 total energy-change (2. order) : 0.3550984E-01  (-0.2701364E-02)
 number of electron      48.0000004 magnetization 
 augmentation part        2.4681757 magnetization 

 Broyden mixing:
  rms(total) = 0.35523E-01    rms(broyden)= 0.35519E-01
  rms(prec ) = 0.73775E-01
  weight for this iteration     100.00

 eigenvalues of (default mixing * dielectric matrix)
  average eigenvalue GAMMA=   1.5451
  2.1605  1.9756  0.9179  1.1266

 Free energy of the ion-electron system (eV)
  ---------------------------------------------------
  alpha Z        PSCENC =         9.71200593
  Ewald energy   TEWEN  =      1906.70096774
  -Hartree energ DENC   =     -3713.21007458
  -exchange      EXHF   =         0.00000000
  -V(xc)+E(xc)   XCENC  =       180.34350963
  PAW double counting   =      4351.89709227    -4364.36879063
  entropy T*S    EENTRO =        -0.00000000
  eigenvalues    EBANDS =      -630.33080642
  atomic energy  EATOM  =      2158.97731088
  Solvation  Ediel_sol  =         0.00000000
  ---------------------------------------------------
  free energy    TOTEN  =      -100.27878519 eV

  energy without entropy =     -100.27878519  energy(sigma->0) =     -100.27878519


--------------------------------------------------------------------------------------------------------




--------------------------------------- Iteration      1(  25)  ---------------------------------------


    POTLOK:  cpu time      0.1714: real time      0.1734
    SETDIJ:  cpu time      0.0032: real time      0.0033
    EDDIAG:  cpu time      0.0714: real time      0.0725
  RMM-DIIS:  cpu time      0.3375: real time      0.3425
    ORTHCH:  cpu time      0.0052: real time      0.0052
       DOS:  cpu time      0.0002: real time      0.0002
    CHARGE:  cpu time      0.0376: real time      0.0382
    MIXING:  cpu time      0.0102: real time      0.0103
    --------------------------------------------
      LOOP:  cpu time      0.6368: real time      0.6457

 eigenvalue-minimisations  :    84
 total energy-change (2. order) : 0.6775506E-02  (-0.4320242E-03)
 number of electron      48.0000004 magnetization 
 augmentation part        2.4678094 magnetization 

 Broyden mixing:
  rms(total) = 0.18683E-01    rms(broyden)= 0.18683E-01
  rms(prec ) = 0.49498E-01
  weight for this iteration     100.00

 eigenvalues of (default mixing * dielectric matrix)
  average eigenvalue GAMMA=   1.6915
  2.5127  2.5127  0.9055  1.0558  1.4706

 Free energy of the ion-electron system (eV)
  ---------------------------------------------------
  alpha Z        PSCENC =         9.71200593
  Ewald energy   TEWEN  =      1906.70096774
  -Hartree energ DENC   =     -3718.35971376
  -exchange      EXHF   =         0.00000000
  -V(xc)+E(xc)   XCENC  =       180.46003667
  PAW double counting   =      4373.35806604    -4385.79637124
  entropy T*S    EENTRO =        -0.00000000
  eigenvalues    EBANDS =      -625.32431194
  atomic energy  EATOM  =      2158.97731088
  Solvation  Ediel_sol  =         0.00000000
  ---------------------------------------------------
  free energy    TOTEN  =      -100.27200968 eV

  energy without entropy =     -100.27200968  energy(sigma->0) =     -100.27200968


--------------------------------------------------------------------------------------------------------




--------------------------------------- Iteration      1(  26)  ---------------------------------------


    POTLOK:  cpu time      0.1986: real time      0.2011
    SETDIJ:  cpu time      0.0027: real time      0.0028
    EDDIAG:  cpu time      0.0686: real time      0.0696
[...]
    SETDIJ:  cpu time      0.0030: real time      0.0030
    EDDIAG:  cpu time      0.0700: real time      0.0723
  RMM-DIIS:  cpu time      0.1999: real time      0.2031
    ORTHCH:  cpu time      0.0036: real time      0.0036
       DOS:  cpu time      0.0002: real time      0.0002
    CHARGE:  cpu time      0.0184: real time      0.0186
    MIXING:  cpu time      0.0048: real time      0.0049
    --------------------------------------------
      LOOP:  cpu time      0.4669: real time      0.4751

 eigenvalue-minimisations  :    57
 total energy-change (2. order) : 0.6052273E-06  (-0.4816361E-05)
 number of electron      48.0000037 magnetization 
 augmentation part        2.4514542 magnetization 

 Broyden mixing:
  rms(total) = 0.92652E-03    rms(broyden)= 0.92617E-03
  rms(prec ) = 0.10405E-02
  weight for this iteration     100.00

 eigenvalues of (default mixing * dielectric matrix)
  average eigenvalue GAMMA=   1.6530
  0.8851  2.0370  2.0370

 Free energy of the ion-electron system (eV)
  ---------------------------------------------------
  alpha Z        PSCENC =         9.71200593
  Ewald energy   TEWEN  =      1879.09198057
  -Hartree energ DENC   =     -3704.75083187
  -exchange      EXHF   =         0.00000000
  -V(xc)+E(xc)   XCENC  =       180.23771718
  PAW double counting   =      4275.83560759    -4288.21468927
  entropy T*S    EENTRO =        -0.00000000
  eigenvalues    EBANDS =      -611.20904459
  atomic energy  EATOM  =      2158.97731088
  Solvation  Ediel_sol  =         0.00000000
  ---------------------------------------------------
  free energy    TOTEN  =      -100.31994357 eV

  energy without entropy =     -100.31994357  energy(sigma->0) =     -100.31994357


--------------------------------------------------------------------------------------------------------




--------------------------------------- Iteration     10(   5)  ---------------------------------------


    POTLOK:  cpu time      0.1729: real time      0.1754
    SETDIJ:  cpu time      0.0031: real time      0.0031
    EDDIAG:  cpu time      0.0705: real time      0.0717
  RMM-DIIS:  cpu time      0.2200: real time      0.2251
    ORTHCH:  cpu time      0.0044: real time      0.0046
       DOS:  cpu time      0.0004: real time      0.0004
    CHARGE:  cpu time      0.0371: real time      0.0380
    MIXING:  cpu time      0.0093: real time      0.0094
    --------------------------------------------
      LOOP:  cpu time      0.5179: real time      0.5278

 eigenvalue-minimisations  :    50
 total energy-change (2. order) : 0.1338917E-06  (-0.1162157E-05)
 number of electron      48.0000037 magnetization 
 augmentation part        2.4514684 magnetization 

 Broyden mixing:
  rms(total) = 0.32907E-03    rms(broyden)= 0.32894E-03
  rms(prec ) = 0.38419E-03
  weight for this iteration     100.00

 eigenvalues of (default mixing * dielectric matrix)
  average eigenvalue GAMMA=   1.6538
  2.2554  2.2554  1.0521  1.0521

 Free energy of the ion-electron system (eV)
  ---------------------------------------------------
  alpha Z        PSCENC =         9.71200593
  Ewald energy   TEWEN  =      1879.09198057
  -Hartree energ DENC   =     -3704.73780406
  -exchange      EXHF   =         0.00000000
  -V(xc)+E(xc)   XCENC  =       180.23736480
  PAW double counting   =      4275.62946831    -4288.00847044
  entropy T*S    EENTRO =        -0.00000000
  eigenvalues    EBANDS =      -611.22179943
  atomic energy  EATOM  =      2158.97731088
  Solvation  Ediel_sol  =         0.00000000
  ---------------------------------------------------
  free energy    TOTEN  =      -100.31994344 eV

  energy without entropy =     -100.31994344  energy(sigma->0) =     -100.31994344


--------------------------------------------------------------------------------------------------------




--------------------------------------- Iteration     10(   6)  ---------------------------------------


    POTLOK:  cpu time      0.1679: real time      0.1707
    SETDIJ:  cpu time      0.0060: real time      0.0061
    EDDIAG:  cpu time      0.0683: real time      0.0694
  RMM-DIIS:  cpu time      0.1960: real time      0.2002
    ORTHCH:  cpu time      0.0052: real time      0.0052
       DOS:  cpu time      0.0004: real time      0.0004
    --------------------------------------------
      LOOP:  cpu time      0.4437: real time      0.4518

 eigenvalue-minimisations  :    46
 total energy-change (2. order) :-0.1014149E-05  (-0.2347686E-06)
 number of electron      48.0000037 magnetization 
 augmentation part        2.4514684 magnetization 

 Free energy of the ion-electron system (eV)
  ---------------------------------------------------
  alpha Z        PSCENC =         9.71200593
  Ewald energy   TEWEN  =      1879.09198057
  -Hartree energ DENC   =     -3704.74270582
  -exchange      EXHF   =         0.00000000
  -V(xc)+E(xc)   XCENC  =       180.23752119
  PAW double counting   =      4275.57943417    -4287.95852530
  entropy T*S    EENTRO =        -0.00000000
  eigenvalues    EBANDS =      -611.21696608
  atomic energy  EATOM  =      2158.97731088
  Solvation  Ediel_sol  =         0.00000000
  ---------------------------------------------------
  free energy    TOTEN  =      -100.31994445 eV

  energy without entropy =     -100.31994445  energy(sigma->0) =     -100.31994445


--------------------------------------------------------------------------------------------------------




 average (electrostatic) potential at core
  the test charge radii are     0.6991  0.7167  0.5201  0.7089
  (the norm of the test charge is              1.0000)
       1 -58.0783       2 -58.5798       3 -60.1692       4 -59.4000       5 -58.7425
       6 -58.5804       7 -85.4303       8 -41.3873       9 -41.3835      10 -41.3953
      11 -43.5246      12 -43.6477      13 -41.5263      14 -41.2974      15 -73.3819
      16 -72.4118
 
 
 
 E-fermi :  -4.1429     XC(G=0):  -1.9600     alpha+bet : -1.0026

 Fermi energy:        -4.1428717124

 k-point     1 :       0.0000    0.0000    0.0000
  band No.  band energies     occupation 
      1     -30.1188      2.00000
      2     -22.9737      2.00000
      3     -22.2010      2.00000
      4     -19.4654      2.00000
      5     -18.0922      2.00000
      6     -16.6808      2.00000
      7     -14.8958      2.00000
      8     -14.6492      2.00000
      9     -12.9866      2.00000
     10     -12.5496      2.00000
     11     -11.8653      2.00000
     12     -10.9907      2.00000
     13     -10.8157      2.00000
     14     -10.0906      2.00000
     15      -9.5792      2.00000
     16      -9.5320      2.00000
     17      -9.3985      2.00000
     18      -8.8948      2.00000
     19      -8.8739      2.00000
     20      -7.9055      2.00000
     21      -7.4932      2.00000
     22      -5.7755      2.00000
     23      -5.1258      2.00000
     24      -4.6547      2.00000
     25      -0.7795      0.00000
     26      -0.4125      0.00000
     27      -0.3248      0.00000
     28       0.4545      0.00000
     29       0.6062      0.00000
     30       0.8200      0.00000
     31       1.0912      0.00000
     32       1.6431      0.00000
     33       1.7626      0.00000
     34       1.8438      0.00000
     35       1.9618      0.00000
     36       2.0205      0.00000


--------------------------------------------------------------------------------------------------------


 soft charge-density along one line, spin component           1
         0         1         2         3         4         5         6         7         8         9
 total charge-density along one line
 
 pseudopotential strength for first ion, spin component:           1
 10.211  13.579  -0.002  -0.000   0.000   0.004   0.000  -0.000
 13.579  18.057  -0.002  -0.000   0.000   0.006   0.001  -0.000
 -0.002  -0.002  -4.340  -0.000  -0.000   8.492   0.000   0.000
 -0.000  -0.000  -0.000  -4.338   0.000   0.000   8.488  -0.000
  0.000   0.000  -0.000   0.000  -4.338   0.000  -0.000   8.488
  0.004   0.006   8.492   0.000   0.000 -18.754  -0.001  -0.000
  0.000   0.001   0.000   8.488  -0.000  -0.001 -18.745   0.000
 -0.000  -0.000   0.000  -0.000   8.488  -0.000   0.000 -18.745
 total augmentation occupancy for first ion, spin component:           1
  7.719  -3.341  -0.008  -0.001  -0.000  -0.012  -0.000  -0.000
 -3.341   1.460   0.031   0.002   0.000   0.010   0.000   0.000
 -0.008   0.031   1.581  -0.006   0.000   0.138  -0.001   0.000
 -0.001   0.002  -0.006   1.645   0.000  -0.001   0.132   0.000
 -0.000   0.000   0.000   0.000   1.625   0.000   0.000   0.131
 -0.012   0.010   0.138  -0.001   0.000   0.013  -0.000   0.000
 -0.000   0.000  -0.001   0.132   0.000  -0.000   0.011   0.000
 -0.000   0.000   0.000   0.000   0.131   0.000   0.000   0.011


------------------------ aborting loop because EDIFF is reached ----------------------------------------





 total charge

# of ion       s       p       d       tot
------------------------------------------
    1        0.837   1.800   0.000   2.637
    2        0.864   1.780   0.000   2.644
    3        0.857   1.709   0.000   2.566
    4        0.860   1.781   0.000   2.641
    5        0.861   1.767   0.000   2.629
    6        0.864   1.760   0.000   2.624
    7        1.748   4.361   0.000   6.109
    8        0.638   0.043   0.000   0.681
    9        0.638   0.043   0.000   0.681
   10        0.643   0.043   0.000   0.686
   11        0.639   0.085   0.000   0.724
   12        0.642   0.084   0.000   0.726
   13        0.645   0.044   0.000   0.689
   14        0.647   0.044   0.000   0.692
   15        1.212   2.773   0.000   3.985
   16        1.263   2.622   0.000   3.884
--------------------------------------------------
tot         13.859  20.738   0.000  34.597
 
    CHARGE:  cpu time      0.0373: real time      0.0379
    FORLOC:  cpu time      0.0240: real time      0.0243
    FORNL :  cpu time      0.1074: real time      0.1097
    STRESS:  cpu time      0.3139: real time      0.3210
    FORCOR:  cpu time      0.2019: real time      0.2052
    FORHAR:  cpu time      0.0617: real time      0.0626
    MIXING:  cpu time      0.0074: real time      0.0075
    OFIELD:  cpu time      0.0001: real time      0.0001

  FORCE on cell =-STRESS in cart. coord.  units (eV):
  Direction    XX          YY          ZZ          XY          YZ          ZX
  --------------------------------------------------------------------------------------
  Alpha Z     9.71201     9.71201     9.71201
  Ewald    -496.98643  1218.95013  1157.12658   -21.49051    98.43739   -17.87745
  Hartree   695.18097  1526.23165  1483.34652    -6.19778    74.18584    -2.88587
  E(xc)    -197.25299  -193.14162  -193.13526    -0.06952     0.04239    -0.06420
  Local    -787.33051 -3246.32839 -3136.11677    23.93078  -174.88258    16.34275
  n-local  -107.49989  -107.51145  -108.41334    -0.19539     1.15641    -0.31411
  augment    19.87187    18.58042    16.96552     0.09509     1.14328     0.14817
  Kinetic   864.11834   773.31367   770.32492     3.90265     0.08456     4.61692
  Fock        0.00000     0.00000     0.00000     0.00000     0.00000     0.00000
  -------------------------------------------------------------------------------------
  Total      -0.18665    -0.19358    -0.18983    -0.02468     0.16729    -0.03380
  in kB      -0.29025    -0.30104    -0.29520    -0.03838     0.26015    -0.05256
  external pressure =       -0.30 kB  Pullay stress =        0.00 kB


 VOLUME and BASIS-vectors are now :
 -----------------------------------------------------------------------------
  energy-cutoff  :      500.00
  volume of cell :     1030.29
      direct lattice vectors                 reciprocal lattice vectors
     7.759100000  0.000000000  0.000000000     0.128880927  0.000000000  0.000000000
     0.000000000 11.733400000  0.000000000     0.000000000  0.085226788  0.000000000
     0.000000000  0.000000000 11.316800000     0.000000000  0.000000000  0.088364202

  length of vectors
     7.759100000 11.733400000 11.316800000     0.128880927  0.085226788  0.088364202


 FORCES acting on ions
    electron-ion (+dipol)            ewald-force                    non-local-force                 convergence-correction
 -----------------------------------------------------------------------------------------------
   0.282E+00 -.192E+03 -.374E+02   -.293E+00 0.193E+03 0.375E+02   0.951E-02 -.144E+01 -.136E+00   -.120E-03 0.351E-03 -.161E-03
   0.954E+00 -.120E+03 -.678E+02   -.985E+00 0.121E+03 0.697E+02   0.248E-01 -.127E+01 -.185E+01   -.284E-03 0.618E-03 -.193E-03
   0.238E+01 -.160E+02 0.936E+01   -.247E+01 0.125E+02 -.110E+01   0.929E-01 0.346E+01 -.823E+01   -.466E-03 -.647E-05 -.498E-03
   -.581E+00 0.101E+03 0.318E+02   0.118E+01 -.100E+03 -.281E+02   -.580E+00 -.479E+00 -.377E+01   -.475E-04 -.916E-03 -.725E-03
   -.971E+00 0.217E+03 -.392E+02   0.893E+00 -.220E+03 0.379E+02   0.792E-01 0.260E+01 0.131E+01   -.278E-03 -.961E-03 -.899E-04
   0.773E+00 -.879E+02 -.200E+03   -.800E+00 0.912E+02 0.201E+03   0.210E-01 -.330E+01 -.127E+01   -.204E-03 0.579E-03 0.766E-03
   -.120E+01 -.216E+03 0.373E+03   0.123E+01 0.241E+03 -.418E+03   -.346E-01 -.248E+02 0.442E+02   -.118E-02 0.222E-02 -.149E-02
   -.521E+02 -.538E+02 0.212E+02   0.565E+02 0.558E+02 -.238E+02   -.442E+01 -.198E+01 0.263E+01   -.459E-04 0.860E-04 -.456E-04
   0.521E+02 -.537E+02 0.215E+02   -.565E+02 0.557E+02 -.241E+02   0.442E+01 -.198E+01 0.265E+01   0.511E-05 0.706E-04 -.617E-04
   0.167E+00 -.514E+02 -.616E+02   -.178E+00 0.535E+02 0.668E+02   0.111E-01 -.208E+01 -.517E+01   -.151E-04 0.578E-04 -.165E-05
   -.238E+02 -.863E+01 0.924E+02   0.259E+02 0.124E+02 -.986E+02   -.214E+01 -.378E+01 0.610E+01   -.566E-04 -.301E-03 -.196E-03
   -.276E+02 0.938E+02 0.214E+02   0.302E+02 -.101E+03 -.211E+02   -.262E+01 0.697E+01 -.230E+00   -.849E-04 -.696E-04 -.240E-03
   -.404E+00 0.868E+02 -.153E+02   0.427E+00 -.924E+02 0.157E+02   -.203E-01 0.567E+01 -.439E+00   -.812E-04 -.223E-03 -.586E-04
   0.152E+00 -.348E+02 -.802E+02   -.161E+00 0.375E+02 0.852E+02   0.955E-02 -.270E+01 -.507E+01   -.240E-04 0.681E-04 0.169E-03
   0.385E+02 0.188E+03 0.203E+03   -.570E+02 -.191E+03 -.208E+03   0.186E+02 0.348E+01 0.517E+01   0.129E-02 -.192E-02 -.154E-02
   -.169E+01 0.153E+03 -.278E+03   0.194E+01 -.169E+03 0.308E+03   -.259E+00 0.159E+02 -.298E+02   -.380E-03 -.222E-02 0.731E-03
 -----------------------------------------------------------------------------------------------
   -.131E+02 0.576E+01 -.602E+01   -.888E-14 0.853E-13 -.568E-13   0.132E+02 -.574E+01 0.610E+01   -.197E-02 -.258E-02 -.364E-02
 
 
 POSITION                                       TOTAL-FORCE (eV/Angst)
 -----------------------------------------------------------------------------------
      3.87877      8.33716      6.15511        -0.001916      0.000781      0.011738
      3.87890      6.83708      6.17982        -0.006923      0.014272      0.019324
      3.87831      6.09304      5.00819         0.001035     -0.016274      0.024765
      3.88151      4.69398      4.99621         0.021153     -0.011210     -0.015839
      3.89144      4.07992      6.26466        -0.000058     -0.024703      0.023494
      3.88289      6.09108      7.36979        -0.006243     -0.029198      0.015476
      3.88792      6.73819      3.79596         0.001905      0.003147      0.020435
      4.76343      8.72741      5.63024        -0.011990      0.008786      0.008798
      2.99580      8.72614      5.62662         0.010949      0.012107      0.008650
      3.87668      8.73609      7.17748        -0.000045      0.011902     -0.016293
      4.13893      4.49736      2.98726        -0.029192     -0.025959     -0.040619
      4.20149      3.04206      3.84682        -0.027183     -0.014408     -0.022987
      3.89838      2.98426      6.32487         0.001104      0.049229      0.001373
      3.88118      6.61775      8.32977         0.000568     -0.014422     -0.024835
      3.82641      3.98390      3.80533         0.053430     -0.006003      0.014855
      3.89246      4.75139      7.41897        -0.006594      0.041953     -0.028336
 -----------------------------------------------------------------------------------
    total drift:                                0.009423      0.023539      0.080496


--------------------------------------------------------------------------------------------------------



  FREE ENERGIE OF THE ION-ELECTRON SYSTEM (eV)
  ---------------------------------------------------
  free  energy   TOTEN  =      -100.31994445 eV

  energy  without entropy=     -100.31994445  energy(sigma->0) =     -100.31994445
 
 d Force = 0.4556827E-03[ 0.289E-03, 0.622E-03]  d Energy = 0.4530155E-03 0.267E-05
 d Force = 0.8223109E+00[ 0.823E+00, 0.821E+00]  d Ewald  = 0.8223101E+00 0.852E-06


--------------------------------------------------------------------------------------------------------


    POTLOK:  cpu time      0.1731: real time      0.1766


--------------------------------------------------------------------------------------------------------


 stress matrix after NEB project (eV)
     -0.18665     -0.02468     -0.03380
     -0.02468     -0.19358      0.16729
     -0.03380      0.16729     -0.18983
  FORCES: max atom, RMS     0.056355    0.035233
  FORCE total and by dimension    0.140932    0.053430
  Stress total and by dimension    0.409660    0.193585
 Conjugate gradient step on ions:
 trial-energy change:   -0.000453  1 .order   -0.000456   -0.000622   -0.000289
  (g-gl).g = 0.558E-03      g.g   = 0.594E-03  gl.gl    = 0.107E-02
 g(Force)  = 0.594E-03   g(Stress)= 0.000E+00 ortho     = 0.137E-04
 gamma     =   0.52211
 trial     =   1.03427
 opt step  =   1.93229  (harmonic =   1.93229) maximal distance =0.00501824
 next E    =  -100.320073   (d E  =  -0.00058)


--------------------------------------------------------------------------------------------------------


     LOOP+:  cpu time      4.0838: real time      4.2646
    4ORBIT:  cpu time      0.0000: real time      0.0000



 total charge

# of ion       s       p       d       tot
------------------------------------------
    1        0.837   1.800   0.000   2.637
    2        0.864   1.780   0.000   2.644
    3        0.857   1.709   0.000   2.566
    4        0.860   1.781   0.000   2.641
    5        0.861   1.767   0.000   2.629
    6        0.864   1.760   0.000   2.624
    7        1.748   4.361   0.000   6.109
    8        0.638   0.043   0.000   0.681
    9        0.638   0.043   0.000   0.681
   10        0.643   0.043   0.000   0.686
   11        0.639   0.085   0.000   0.724
   12        0.642   0.084   0.000   0.726
   13        0.645   0.044   0.000   0.689
   14        0.647   0.044   0.000   0.692
   15        1.212   2.773   0.000   3.985
   16        1.263   2.622   0.000   3.884
--------------------------------------------------
tot         13.859  20.738   0.000  34.597
 

 total amount of memory used by VASP MPI-rank0    55969. kBytes
=======================================================================

   base      :      30000. kBytes
   nonlr-proj:        469. kBytes
   fftplans  :       7948. kBytes
   grid      :      16595. kBytes
   one-center:         12. kBytes
   wavefun   :        945. kBytes
 
  
  
 General timing and accounting informations for this job:
 ========================================================
  
                  Total CPU time used (sec):       62.925
                            User time (sec):       55.198
                          System time (sec):        7.728
                         Elapsed time (sec):       68.928
  
                   Maximum memory used (kb):      235456.
                   Average memory used (kb):          N/A
  
                          Minor page faults:        30102
                          Major page faults:         5718
                 Voluntary context switches:         2599
