PROCAR lm decomposed
# of k-points:    1         # of bands:   36         # of ions:   16

 k-point     1 :    0.00000000 0.00000000 0.00000000     weight = 1.00000000

band     1 # energy  -30.11879940 # occ.  2.00000000
 
ion      s     py     pz     px    dxy    dyz    dz2    dxz  x2-y2    tot
    1  0.000  0.000  0.000  0.000  0.000  0.000  0.000  0.000  0.000  0.000
    2  0.001  0.000  0.000  0.000  0.000  0.000  0.000  0.000  0.000  0.001
    3  0.048  0.006  0.024  0.000  0.000  0.000  0.000  0.000  0.000  0.078
    4  0.001  0.000  0.000  0.000  0.000  0.000  0.000  0.000  0.000  0.002
    5  0.000  0.000  0.000  0.000  0.000  0.000  0.000  0.000  0.000  0.000
    6  0.000  0.000  0.000  0.000  0.000  0.000  0.000  0.000  0.000  0.000
    7  0.786  0.006  0.020  0.000  0.000  0.000  0.000  0.000  0.000  0.812
    8  0.000  0.000  0.000  0.000  0.000  0.000  0.000  0.000  0.000  0.000
    9  0.000  0.000  0.000  0.000  0.000  0.000  0.000  0.000  0.000  0.000
   10  0.000  0.000  0.000  0.000  0.000  0.000  0.000  0.000  0.000  0.000
   11  0.000  0.000  0.000  0.000  0.000  0.000  0.000  0.000  0.000  0.000
   12  0.000  0.000  0.000  0.000  0.000  0.000  0.000  0.000  0.000  0.000
   13  0.000  0.000  0.000  0.000  0.000  0.000  0.000  0.000  0.000  0.000
   14  0.000  0.000  0.000  0.000  0.000  0.000  0.000  0.000  0.000  0.000
   15  0.000  0.000  0.000  0.000  0.000  0.000  0.000  0.000  0.000  0.000
   16  0.000  0.000  0.000  0.000  0.000  0.000  0.000  0.000  0.000  0.000
tot    0.836  0.013  0.044  0.000  0.000  0.000  0.000  0.000  0.000  0.894
 
band     2 # energy  -22.97366564 # occ.  2.00000000
 
ion      s     py     pz     px    dxy    dyz    dz2    dxz  x2-y2    tot
    1  0.001  0.000  0.000  0.000  0.000  0.000  0.000  0.000  0.000  0.001
    2  0.018  0.003  0.000  0.000  0.000  0.000  0.000  0.000  0.000  0.021
    3  0.024  0.005  0.002  0.000  0.000  0.000  0.000  0.000  0.000  0.031
    4  0.116  0.001  0.001  0.000  0.000  0.000  0.000  0.000  0.000  0.118
    5  0.087  0.009  0.001  0.000  0.000  0.000  0.000  0.000  0.000  0.097
    6  0.053  0.010  0.002  0.000  0.000  0.000  0.000  0.000  0.000  0.065
    7  0.007  0.000  0.000  0.000  0.000  0.000  0.000  0.000  0.000  0.007
    8  0.000  0.000  0.000  0.000  0.000  0.000  0.000  0.000  0.000  0.000
    9  0.000  0.000  0.000  0.000  0.000  0.000  0.000  0.000  0.000  0.000
   10  0.000  0.000  0.000  0.000  0.000  0.000  0.000  0.000  0.000  0.000
   11  0.018  0.001  0.002  0.000  0.000  0.000  0.000  0.000  0.000  0.021
   12  0.019  0.003  0.000  0.000  0.000  0.000  0.000  0.000  0.000  0.022
   13  0.003  0.000  0.000  0.000  0.000  0.000  0.000  0.000  0.000  0.004
   14  0.001  0.000  0.000  0.000  0.000  0.000  0.000  0.000  0.000  0.002
   15  0.180  0.001  0.004  0.002  0.000  0.000  0.000  0.000  0.000  0.188
   16  0.174  0.004  0.017  0.000  0.000  0.000  0.000  0.000  0.000  0.195
tot    0.702  0.038  0.030  0.003  0.000  0.000  0.000  0.000  0.000  0.772
 
band     3 # energy  -22.20102353 # occ.  2.00000000
 
ion      s     py     pz     px    dxy    dyz    dz2    dxz  x2-y2    tot
    1  0.001  0.000  0.000  0.000  0.000  0.000  0.000  0.000  0.000  0.001
    2  0.014  0.001  0.000  0.000  0.000  0.000  0.000  0.000  0.000  0.015
    3  0.000  0.002  0.002  0.000  0.000  0.000  0.000  0.000  0.000  0.004
    4  0.037  0.005  0.026  0.000  0.000  0.000  0.000  0.000  0.000  0.068
    5  0.026  0.006  0.016  0.000  0.000  0.000  0.000  0.000  0.000  0.049
    6  0.062  0.012  0.001  0.000  0.000  0.000  0.000  0.000  0.000  0.076
    7  0.001  0.000  0.000  0.000  0.000  0.000  0.000  0.000  0.000  0.001
    8  0.000  0.000  0.000  0.000  0.000  0.000  0.000  0.000  0.000  0.000
    9  0.000  0.000  0.000  0.000  0.000  0.000  0.000  0.000  0.000  0.000
   10  0.000  0.000  0.000  0.000  0.000  0.000  0.000  0.000  0.000  0.000
   11  0.035  0.001  0.004  0.000  0.000  0.000  0.000  0.000  0.000  0.041
   12  0.035  0.005  0.000  0.001  0.000  0.000  0.000  0.000  0.000  0.041
   13  0.000  0.000  0.000  0.000  0.000  0.000  0.000  0.000  0.000  0.001
   14  0.002  0.000  0.000  0.000  0.000  0.000  0.000  0.000  0.000  0.002
   15  0.300  0.001  0.003  0.005  0.000  0.000  0.000  0.000  0.000  0.309
   16  0.190  0.005  0.013  0.000  0.000  0.000  0.000  0.000  0.000  0.208
tot    0.704  0.041  0.066  0.006  0.000  0.000  0.000  0.000  0.000  0.817
 
band     4 # energy  -19.46538886 # occ.  2.00000000
 
ion      s     py     pz     px    dxy    dyz    dz2    dxz  x2-y2    tot
    1  0.090  0.007  0.000  0.000  0.000  0.000  0.000  0.000  0.000  0.097
    2  0.231  0.000  0.003  0.000  0.000  0.000  0.000  0.000  0.000  0.234
    3  0.118  0.001  0.020  0.000  0.000  0.000  0.000  0.000  0.000  0.139
    4  0.008  0.011  0.000  0.000  0.000  0.000  0.000  0.000  0.000  0.020
    5  0.022  0.000  0.011  0.000  0.000  0.000  0.000  0.000  0.000  0.033
    6  0.009  0.021  0.009  0.000  0.000  0.000  0.000  0.000  0.000  0.039
    7  0.019  0.001  0.011  0.000  0.000  0.000  0.000  0.000  0.000  0.030
    8  0.009  0.000  0.000  0.001  0.000  0.000  0.000  0.000  0.000  0.010
    9  0.009  0.000  0.000  0.001  0.000  0.000  0.000  0.000  0.000  0.010
   10  0.009  0.000  0.001  0.000  0.000  0.000  0.000  0.000  0.000  0.010
   11  0.001  0.000  0.000  0.000  0.000  0.000  0.000  0.000  0.000  0.001
   12  0.002  0.000  0.000  0.000  0.000  0.000  0.000  0.000  0.000  0.002
   13  0.002  0.000  0.000  0.000  0.000  0.000  0.000  0.000  0.000  0.002
   14  0.001  0.000  0.000  0.000  0.000  0.000  0.000  0.000  0.000  0.001
   15  0.007  0.001  0.000  0.000  0.000  0.000  0.000  0.000  0.000  0.008
   16  0.081  0.001  0.005  0.000  0.000  0.000  0.000  0.000  0.000  0.087
tot    0.619  0.044  0.060  0.001  0.000  0.000  0.000  0.000  0.000  0.724
 
band     5 # energy  -18.09216508 # occ.  2.00000000
 
ion      s     py     pz     px    dxy    dyz    dz2    dxz  x2-y2    tot
    1  0.049  0.001  0.000  0.000  0.000  0.000  0.000  0.000  0.000  0.050
    2  0.018  0.007  0.012  0.000  0.000  0.000  0.000  0.000  0.000  0.036
    3  0.077  0.025  0.000  0.000  0.000  0.000  0.000  0.000  0.000  0.102
    4  0.134  0.012  0.021  0.000  0.000  0.000  0.000  0.000  0.000  0.166
    5  0.066  0.002  0.013  0.000  0.000  0.000  0.000  0.000  0.000  0.081
    6  0.077  0.001  0.000  0.000  0.000  0.000  0.000  0.000  0.000  0.078
    7  0.008  0.005  0.005  0.000  0.000  0.000  0.000  0.000  0.000  0.018
    8  0.006  0.000  0.000  0.000  0.000  0.000  0.000  0.000  0.000  0.006
    9  0.006  0.000  0.000  0.000  0.000  0.000  0.000  0.000  0.000  0.006
   10  0.007  0.000  0.001  0.000  0.000  0.000  0.000  0.000  0.000  0.008
   11  0.021  0.001  0.001  0.000  0.000  0.000  0.000  0.000  0.000  0.024
   12  0.022  0.003  0.000  0.000  0.000  0.000  0.000  0.000  0.000  0.026
   13  0.006  0.001  0.000  0.000  0.000  0.000  0.000  0.000  0.000  0.006
   14  0.011  0.000  0.001  0.000  0.000  0.000  0.000  0.000  0.000  0.012
   15  0.073  0.005  0.012  0.003  0.000  0.000  0.000  0.000  0.000  0.094
   16  0.021  0.020  0.004  0.000  0.000  0.000  0.000  0.000  0.000  0.045
tot    0.600  0.082  0.071  0.005  0.000  0.000  0.000  0.000  0.000  0.758
 
band     6 # energy  -16.68075461 # occ.  2.00000000
 
ion      s     py     pz     px    dxy    dyz    dz2    dxz  x2-y2    tot
    1  0.203  0.000  0.000  0.000  0.000  0.000  0.000  0.000  0.000  0.204
    2  0.001  0.048  0.001  0.000  0.000  0.000  0.000  0.000  0.000  0.050
    3  0.035  0.002  0.001  0.000  0.000  0.000  0.000  0.000  0.000  0.038
    4  0.001  0.020  0.008  0.000  0.000  0.000  0.000  0.000  0.000  0.030
    5  0.112  0.001  0.000  0.000  0.000  0.000  0.000  0.000  0.000  0.113
    6  0.078  0.002  0.000  0.000  0.000  0.000  0.000  0.000  0.000  0.080
    7  0.003  0.005  0.004  0.000  0.000  0.000  0.000  0.000  0.000  0.012
    8  0.034  0.000  0.001  0.002  0.000  0.000  0.000  0.000  0.000  0.038
    9  0.034  0.000  0.001  0.002  0.000  0.000  0.000  0.000  0.000  0.038
   10  0.032  0.000  0.003  0.000  0.000  0.000  0.000  0.000  0.000  0.035
   11  0.002  0.000  0.000  0.000  0.000  0.000  0.000  0.000  0.000  0.003
   12  0.000  0.000  0.000  0.000  0.000  0.000  0.000  0.000  0.000  0.000
   13  0.022  0.002  0.000  0.000  0.000  0.000  0.000  0.000  0.000  0.024
   14  0.008  0.000  0.001  0.000  0.000  0.000  0.000  0.000  0.000  0.009
   15  0.001  0.002  0.003  0.000  0.000  0.000  0.000  0.000  0.000  0.005
   16  0.000  0.049  0.012  0.000  0.000  0.000  0.000  0.000  0.000  0.061
tot    0.570  0.131  0.034  0.004  0.000  0.000  0.000  0.000  0.000  0.739
 
band     7 # energy  -14.89579066 # occ.  2.00000000
 
ion      s     py     pz     px    dxy    dyz    dz2    dxz  x2-y2    tot
    1  0.001  0.000  0.004  0.000  0.000  0.000  0.000  0.000  0.000  0.005
    2  0.001  0.001  0.067  0.000  0.000  0.000  0.000  0.000  0.000  0.069
    3  0.074  0.017  0.001  0.000  0.000  0.000  0.000  0.000  0.000  0.093
    4  0.055  0.026  0.008  0.000  0.000  0.000  0.000  0.000  0.000  0.088
    5  0.005  0.001  0.074  0.000  0.000  0.000  0.000  0.000  0.000  0.081
    6  0.087  0.020  0.000  0.000  0.000  0.000  0.000  0.000  0.000  0.107
    7  0.026  0.015  0.098  0.000  0.000  0.000  0.000  0.000  0.000  0.138
    8  0.001  0.000  0.000  0.000  0.000  0.000  0.000  0.000  0.000  0.001
    9  0.001  0.000  0.000  0.000  0.000  0.000  0.000  0.000  0.000  0.001
   10  0.001  0.000  0.000  0.000  0.000  0.000  0.000  0.000  0.000  0.001
   11  0.023  0.001  0.001  0.000  0.000  0.000  0.000  0.000  0.000  0.026
   12  0.002  0.000  0.000  0.000  0.000  0.000  0.000  0.000  0.000  0.003
   13  0.002  0.000  0.000  0.000  0.000  0.000  0.000  0.000  0.000  0.003
   14  0.028  0.000  0.002  0.000  0.000  0.000  0.000  0.000  0.000  0.030
   15  0.009  0.000  0.044  0.002  0.000  0.000  0.000  0.000  0.000  0.055
   16  0.047  0.017  0.007  0.000  0.000  0.000  0.000  0.000  0.000  0.071
tot    0.364  0.098  0.307  0.002  0.000  0.000  0.000  0.000  0.000  0.772
 
band     8 # energy  -14.64919037 # occ.  2.00000000
 
ion      s     py     pz     px    dxy    dyz    dz2    dxz  x2-y2    tot
    1  0.062  0.013  0.000  0.000  0.000  0.000  0.000  0.000  0.000  0.075
    2  0.078  0.015  0.004  0.000  0.000  0.000  0.000  0.000  0.000  0.097
    3  0.001  0.058  0.047  0.000  0.000  0.000  0.000  0.000  0.000  0.106
    4  0.041  0.025  0.025  0.000  0.000  0.000  0.000  0.000  0.000  0.092
    5  0.046  0.004  0.000  0.000  0.000  0.000  0.000  0.000  0.000  0.050
    6  0.004  0.020  0.023  0.000  0.000  0.000  0.000  0.000  0.000  0.047
    7  0.003  0.032  0.001  0.000  0.000  0.000  0.000  0.000  0.000  0.036
    8  0.017  0.000  0.000  0.001  0.000  0.000  0.000  0.000  0.000  0.018
    9  0.017  0.000  0.000  0.001  0.000  0.000  0.000  0.000  0.000  0.018
   10  0.021  0.000  0.002  0.000  0.000  0.000  0.000  0.000  0.000  0.023
   11  0.000  0.001  0.000  0.000  0.000  0.000  0.000  0.000  0.000  0.001
   12  0.038  0.003  0.000  0.001  0.000  0.000  0.000  0.000  0.000  0.042
   13  0.019  0.001  0.000  0.000  0.000  0.000  0.000  0.000  0.000  0.020
   14  0.004  0.000  0.000  0.000  0.000  0.000  0.000  0.000  0.000  0.005
   15  0.007  0.059  0.008  0.003  0.000  0.000  0.000  0.000  0.000  0.077
   16  0.014  0.030  0.010  0.000  0.000  0.000  0.000  0.000  0.000  0.054
tot    0.372  0.261  0.122  0.006  0.000  0.000  0.000  0.000  0.000  0.761
 
band     9 # energy  -12.98660466 # occ.  2.00000000
 
ion      s     py     pz     px    dxy    dyz    dz2    dxz  x2-y2    tot
    1  0.001  0.001  0.001  0.000  0.000  0.000  0.000  0.000  0.000  0.002
    2  0.004  0.006  0.005  0.000  0.000  0.000  0.000  0.000  0.000  0.014
    3  0.003  0.060  0.034  0.000  0.000  0.000  0.000  0.000  0.000  0.097
    4  0.000  0.057  0.002  0.000  0.000  0.000  0.000  0.000  0.000  0.059
    5  0.000  0.018  0.015  0.000  0.000  0.000  0.000  0.000  0.000  0.033
    6  0.010  0.003  0.026  0.000  0.000  0.000  0.000  0.000  0.000  0.039
    7  0.015  0.012  0.242  0.000  0.000  0.000  0.000  0.000  0.000  0.270
    8  0.000  0.000  0.000  0.000  0.000  0.000  0.000  0.000  0.000  0.000
    9  0.000  0.000  0.000  0.000  0.000  0.000  0.000  0.000  0.000  0.000
   10  0.001  0.000  0.000  0.000  0.000  0.000  0.000  0.000  0.000  0.001
   11  0.064  0.001  0.003  0.001  0.000  0.000  0.000  0.000  0.000  0.069
   12  0.013  0.001  0.001  0.000  0.000  0.000  0.000  0.000  0.000  0.015
   13  0.010  0.001  0.000  0.000  0.000  0.000  0.000  0.000  0.000  0.010
   14  0.014  0.001  0.001  0.000  0.000  0.000  0.000  0.000  0.000  0.015
   15  0.000  0.034  0.090  0.001  0.000  0.000  0.000  0.000  0.000  0.125
   16  0.000  0.015  0.020  0.000  0.000  0.000  0.000  0.000  0.000  0.035
tot    0.136  0.208  0.438  0.002  0.000  0.000  0.000  0.000  0.000  0.784
 
band    10 # energy  -12.54962591 # occ.  2.00000000
 
ion      s     py     pz     px    dxy    dyz    dz2    dxz  x2-y2    tot
    1  0.005  0.009  0.011  0.000  0.000  0.000  0.000  0.000  0.000  0.025
    2  0.007  0.005  0.059  0.000  0.000  0.000  0.000  0.000  0.000  0.071
    3  0.001  0.000  0.050  0.000  0.000  0.000  0.000  0.000  0.000  0.051
    4  0.006  0.001  0.017  0.000  0.000  0.000  0.000  0.000  0.000  0.024
    5  0.028  0.026  0.030  0.000  0.000  0.000  0.000  0.000  0.000  0.084
    6  0.009  0.091  0.000  0.000  0.000  0.000  0.000  0.000  0.000  0.100
    7  0.005  0.074  0.029  0.000  0.000  0.000  0.000  0.000  0.000  0.108
    8  0.009  0.000  0.000  0.001  0.000  0.000  0.000  0.000  0.000  0.010
    9  0.009  0.000  0.000  0.001  0.000  0.000  0.000  0.000  0.000  0.010
   10  0.000  0.000  0.000  0.000  0.000  0.000  0.000  0.000  0.000  0.001
   11  0.021  0.000  0.002  0.000  0.000  0.000  0.000  0.000  0.000  0.023
   12  0.030  0.002  0.000  0.001  0.000  0.000  0.000  0.000  0.000  0.033
   13  0.038  0.003  0.000  0.000  0.000  0.000  0.000  0.000  0.000  0.041
   14  0.019  0.000  0.002  0.000  0.000  0.000  0.000  0.000  0.000  0.021
   15  0.000  0.060  0.011  0.000  0.000  0.000  0.000  0.000  0.000  0.072
   16  0.004  0.073  0.005  0.000  0.000  0.000  0.000  0.000  0.000  0.081
tot    0.191  0.345  0.215  0.002  0.000  0.000  0.000  0.000  0.000  0.754
 
band    11 # energy  -11.86526394 # occ.  2.00000000
 
ion      s     py     pz     px    dxy    dyz    dz2    dxz  x2-y2    tot
    1  0.004  0.018  0.005  0.000  0.000  0.000  0.000  0.000  0.000  0.027
    2  0.027  0.002  0.015  0.000  0.000  0.000  0.000  0.000  0.000  0.044
    3  0.006  0.023  0.014  0.001  0.000  0.000  0.000  0.000  0.000  0.044
    4  0.003  0.033  0.113  0.004  0.000  0.000  0.000  0.000  0.000  0.153
    5  0.008  0.002  0.018  0.000  0.000  0.000  0.000  0.000  0.000  0.028
    6  0.009  0.003  0.003  0.000  0.000  0.000  0.000  0.000  0.000  0.016
    7  0.001  0.047  0.012  0.002  0.000  0.000  0.000  0.000  0.000  0.062
    8  0.002  0.000  0.000  0.000  0.000  0.000  0.000  0.000  0.000  0.002
    9  0.001  0.000  0.000  0.000  0.000  0.000  0.000  0.000  0.000  0.001
   10  0.014  0.000  0.001  0.000  0.000  0.000  0.000  0.000  0.000  0.015
   11  0.008  0.002  0.000  0.000  0.000  0.000  0.000  0.000  0.000  0.010
   12  0.076  0.004  0.001  0.001  0.000  0.000  0.000  0.000  0.000  0.082
   13  0.000  0.000  0.000  0.000  0.000  0.000  0.000  0.000  0.000  0.001
   14  0.012  0.000  0.001  0.000  0.000  0.000  0.000  0.000  0.000  0.013
   15  0.001  0.139  0.118  0.017  0.000  0.000  0.000  0.000  0.000  0.274
   16  0.014  0.003  0.000  0.000  0.000  0.000  0.000  0.000  0.000  0.018
tot    0.188  0.278  0.301  0.025  0.000  0.000  0.000  0.000  0.000  0.791
 
band    12 # energy  -10.99068428 # occ.  2.00000000
 
ion      s     py     pz     px    dxy    dyz    dz2    dxz  x2-y2    tot
    1  0.000  0.000  0.016  0.000  0.000  0.000  0.000  0.000  0.000  0.017
    2  0.003  0.000  0.037  0.001  0.000  0.000  0.000  0.000  0.000  0.041
    3  0.000  0.017  0.008  0.002  0.000  0.000  0.000  0.000  0.000  0.028
    4  0.000  0.005  0.023  0.001  0.000  0.000  0.000  0.000  0.000  0.030
    5  0.016  0.022  0.054  0.000  0.000  0.000  0.000  0.000  0.000  0.091
    6  0.005  0.011  0.046  0.000  0.000  0.000  0.000  0.000  0.000  0.061
    7  0.000  0.036  0.003  0.009  0.000  0.000  0.000  0.000  0.000  0.048
    8  0.004  0.000  0.000  0.000  0.000  0.000  0.000  0.000  0.000  0.004
    9  0.001  0.000  0.000  0.000  0.000  0.000  0.000  0.000  0.000  0.001
   10  0.008  0.000  0.000  0.000  0.000  0.000  0.000  0.000  0.000  0.008
   11  0.098  0.001  0.005  0.001  0.000  0.000  0.000  0.000  0.000  0.105
   12  0.052  0.003  0.001  0.001  0.000  0.000  0.000  0.000  0.000  0.056
   13  0.030  0.002  0.000  0.000  0.000  0.000  0.000  0.000  0.000  0.032
   14  0.019  0.001  0.000  0.000  0.000  0.000  0.000  0.000  0.000  0.020
   15  0.000  0.088  0.100  0.001  0.000  0.000  0.000  0.000  0.000  0.189
   16  0.004  0.033  0.030  0.000  0.000  0.000  0.000  0.000  0.000  0.067
tot    0.239  0.219  0.324  0.018  0.000  0.000  0.000  0.000  0.000  0.800
 
band    13 # energy  -10.81570311 # occ.  2.00000000
 
ion      s     py     pz     px    dxy    dyz    dz2    dxz  x2-y2    tot
    1  0.000  0.001  0.000  0.024  0.000  0.000  0.000  0.000  0.000  0.024
    2  0.001  0.000  0.000  0.030  0.000  0.000  0.000  0.000  0.000  0.031
    3  0.000  0.000  0.000  0.093  0.000  0.000  0.000  0.000  0.000  0.093
    4  0.000  0.000  0.005  0.025  0.000  0.000  0.000  0.000  0.000  0.030
    5  0.001  0.000  0.002  0.007  0.000  0.000  0.000  0.000  0.000  0.010
    6  0.000  0.000  0.001  0.007  0.000  0.000  0.000  0.000  0.000  0.009
    7  0.000  0.000  0.000  0.388  0.000  0.000  0.000  0.000  0.000  0.388
    8  0.008  0.000  0.000  0.000  0.000  0.000  0.000  0.000  0.000  0.008
    9  0.014  0.000  0.000  0.000  0.000  0.000  0.000  0.000  0.000  0.014
   10  0.000  0.000  0.000  0.000  0.000  0.000  0.000  0.000  0.000  0.000
   11  0.003  0.000  0.000  0.000  0.000  0.000  0.000  0.000  0.000  0.004
   12  0.000  0.000  0.000  0.000  0.000  0.000  0.000  0.000  0.000  0.000
   13  0.001  0.000  0.000  0.000  0.000  0.000  0.000  0.000  0.000  0.001
   14  0.001  0.000  0.000  0.000  0.000  0.000  0.000  0.000  0.000  0.001
   15  0.000  0.000  0.011  0.005  0.000  0.000  0.000  0.000  0.000  0.017
   16  0.001  0.001  0.000  0.007  0.000  0.000  0.000  0.000  0.000  0.009
tot    0.030  0.003  0.020  0.587  0.000  0.000  0.000  0.000  0.000  0.640
 
band    14 # energy  -10.09062593 # occ.  2.00000000
 
ion      s     py     pz     px    dxy    dyz    dz2    dxz  x2-y2    tot
    1  0.000  0.000  0.005  0.000  0.000  0.000  0.000  0.000  0.000  0.005
    2  0.000  0.000  0.028  0.000  0.000  0.000  0.000  0.000  0.000  0.028
    3  0.031  0.028  0.022  0.000  0.000  0.000  0.000  0.000  0.000  0.081
    4  0.001  0.051  0.022  0.000  0.000  0.000  0.000  0.000  0.000  0.074
    5  0.001  0.085  0.031  0.000  0.000  0.000  0.000  0.000  0.000  0.118
    6  0.000  0.004  0.072  0.000  0.000  0.000  0.000  0.000  0.000  0.075
    7  0.000  0.001  0.120  0.000  0.000  0.000  0.000  0.000  0.000  0.122
    8  0.000  0.000  0.000  0.000  0.000  0.000  0.000  0.000  0.000  0.001
    9  0.001  0.000  0.000  0.000  0.000  0.000  0.000  0.000  0.000  0.001
   10  0.002  0.000  0.000  0.000  0.000  0.000  0.000  0.000  0.000  0.002
   11  0.017  0.000  0.001  0.000  0.000  0.000  0.000  0.000  0.000  0.018
   12  0.020  0.001  0.000  0.000  0.000  0.000  0.000  0.000  0.000  0.021
   13  0.054  0.002  0.000  0.000  0.000  0.000  0.000  0.000  0.000  0.057
   14  0.045  0.001  0.001  0.000  0.000  0.000  0.000  0.000  0.000  0.047
   15  0.000  0.029  0.007  0.000  0.000  0.000  0.000  0.000  0.000  0.036
   16  0.005  0.020  0.038  0.000  0.000  0.000  0.000  0.000  0.000  0.064
tot    0.178  0.223  0.347  0.001  0.000  0.000  0.000  0.000  0.000  0.750
 
band    15 # energy   -9.57917081 # occ.  2.00000000
 
ion      s     py     pz     px    dxy    dyz    dz2    dxz  x2-y2    tot
    1  0.000  0.157  0.000  0.003  0.000  0.000  0.000  0.000  0.000  0.160
    2  0.002  0.170  0.003  0.000  0.000  0.000  0.000  0.000  0.000  0.176
    3  0.001  0.004  0.004  0.000  0.000  0.000  0.000  0.000  0.000  0.009
    4  0.013  0.004  0.018  0.001  0.000  0.000  0.000  0.000  0.000  0.035
    5  0.000  0.065  0.001  0.000  0.000  0.000  0.000  0.000  0.000  0.066
    6  0.009  0.004  0.069  0.000  0.000  0.000  0.000  0.000  0.000  0.082
    7  0.000  0.010  0.000  0.000  0.000  0.000  0.000  0.000  0.000  0.010
    8  0.031  0.000  0.001  0.001  0.000  0.000  0.000  0.000  0.000  0.033
    9  0.010  0.001  0.000  0.001  0.000  0.000  0.000  0.000  0.000  0.011
   10  0.012  0.001  0.001  0.000  0.000  0.000  0.000  0.000  0.000  0.014
   11  0.000  0.000  0.000  0.000  0.000  0.000  0.000  0.000  0.000  0.000
   12  0.002  0.000  0.000  0.000  0.000  0.000  0.000  0.000  0.000  0.002
   13  0.054  0.002  0.000  0.000  0.000  0.000  0.000  0.000  0.000  0.057
   14  0.026  0.000  0.001  0.000  0.000  0.000  0.000  0.000  0.000  0.027
   15  0.000  0.005  0.005  0.002  0.000  0.000  0.000  0.000  0.000  0.011
   16  0.006  0.008  0.000  0.000  0.000  0.000  0.000  0.000  0.000  0.013
tot    0.166  0.430  0.102  0.009  0.000  0.000  0.000  0.000  0.000  0.707
 
band    16 # energy   -9.53202506 # occ.  2.00000000
 
ion      s     py     pz     px    dxy    dyz    dz2    dxz  x2-y2    tot
    1  0.000  0.001  0.000  0.214  0.000  0.000  0.000  0.000  0.000  0.215
    2  0.000  0.001  0.000  0.034  0.000  0.000  0.000  0.000  0.000  0.035
    3  0.000  0.000  0.000  0.002  0.000  0.000  0.000  0.000  0.000  0.002
    4  0.000  0.000  0.000  0.000  0.000  0.000  0.000  0.000  0.000  0.000
    5  0.000  0.001  0.000  0.002  0.000  0.000  0.000  0.000  0.000  0.002
    6  0.000  0.000  0.001  0.012  0.000  0.000  0.000  0.000  0.000  0.013
    7  0.000  0.001  0.000  0.155  0.000  0.000  0.000  0.000  0.000  0.156
    8  0.099  0.002  0.002  0.001  0.000  0.000  0.000  0.000  0.000  0.104
    9  0.112  0.001  0.003  0.002  0.000  0.000  0.000  0.000  0.000  0.118
   10  0.000  0.000  0.000  0.002  0.000  0.000  0.000  0.000  0.000  0.002
   11  0.000  0.000  0.000  0.000  0.000  0.000  0.000  0.000  0.000  0.000
   12  0.000  0.000  0.000  0.000  0.000  0.000  0.000  0.000  0.000  0.000
   13  0.001  0.000  0.000  0.000  0.000  0.000  0.000  0.000  0.000  0.001
   14  0.001  0.000  0.000  0.000  0.000  0.000  0.000  0.000  0.000  0.001
   15  0.000  0.000  0.000  0.000  0.000  0.000  0.000  0.000  0.000  0.000
   16  0.000  0.000  0.000  0.008  0.000  0.000  0.000  0.000  0.000  0.008
tot    0.212  0.008  0.006  0.431  0.000  0.000  0.000  0.000  0.000  0.658
 
band    17 # energy   -9.39854019 # occ.  2.00000000
 
ion      s     py     pz     px    dxy    dyz    dz2    dxz  x2-y2    tot
    1  0.001  0.045  0.006  0.000  0.000  0.000  0.000  0.000  0.000  0.052
    2  0.018  0.023  0.002  0.000  0.000  0.000  0.000  0.000  0.000  0.043
    3  0.003  0.000  0.002  0.000  0.000  0.000  0.000  0.000  0.000  0.005
    4  0.002  0.005  0.002  0.000  0.000  0.000  0.000  0.000  0.000  0.009
    5  0.000  0.015  0.023  0.000  0.000  0.000  0.000  0.000  0.000  0.038
    6  0.003  0.050  0.010  0.000  0.000  0.000  0.000  0.000  0.000  0.062
    7  0.000  0.325  0.083  0.002  0.000  0.000  0.000  0.000  0.000  0.410
    8  0.000  0.000  0.000  0.000  0.000  0.000  0.000  0.000  0.000  0.001
    9  0.001  0.000  0.000  0.000  0.000  0.000  0.000  0.000  0.000  0.001
   10  0.017  0.000  0.001  0.000  0.000  0.000  0.000  0.000  0.000  0.018
   11  0.000  0.000  0.000  0.000  0.000  0.000  0.000  0.000  0.000  0.000
   12  0.000  0.000  0.000  0.000  0.000  0.000  0.000  0.000  0.000  0.000
   13  0.012  0.000  0.000  0.000  0.000  0.000  0.000  0.000  0.000  0.013
   14  0.045  0.000  0.002  0.000  0.000  0.000  0.000  0.000  0.000  0.047
   15  0.002  0.001  0.001  0.000  0.000  0.000  0.000  0.000  0.000  0.004
   16  0.001  0.051  0.011  0.000  0.000  0.000  0.000  0.000  0.000  0.064
tot    0.105  0.517  0.142  0.004  0.000  0.000  0.000  0.000  0.000  0.768
 
band    18 # energy   -8.89482647 # occ.  2.00000000
 
ion      s     py     pz     px    dxy    dyz    dz2    dxz  x2-y2    tot
    1  0.000  0.000  0.000  0.035  0.000  0.000  0.000  0.000  0.000  0.036
    2  0.000  0.001  0.001  0.003  0.000  0.000  0.000  0.000  0.000  0.004
    3  0.000  0.000  0.000  0.004  0.000  0.000  0.000  0.000  0.000  0.005
    4  0.000  0.000  0.003  0.081  0.000  0.000  0.000  0.000  0.000  0.085
    5  0.000  0.000  0.000  0.084  0.000  0.000  0.000  0.000  0.000  0.085
    6  0.000  0.000  0.001  0.033  0.000  0.000  0.000  0.000  0.000  0.035
    7  0.000  0.003  0.001  0.098  0.000  0.000  0.000  0.000  0.000  0.102
    8  0.016  0.000  0.000  0.000  0.000  0.000  0.000  0.000  0.000  0.017
    9  0.025  0.000  0.000  0.000  0.000  0.000  0.000  0.000  0.000  0.026
   10  0.000  0.000  0.000  0.000  0.000  0.000  0.000  0.000  0.000  0.000
   11  0.000  0.000  0.000  0.001  0.000  0.000  0.000  0.000  0.000  0.001
   12  0.000  0.000  0.000  0.001  0.000  0.000  0.000  0.000  0.000  0.001
   13  0.000  0.000  0.000  0.001  0.000  0.000  0.000  0.000  0.000  0.001
   14  0.000  0.000  0.000  0.000  0.000  0.000  0.000  0.000  0.000  0.001
   15  0.003  0.003  0.003  0.051  0.000  0.000  0.000  0.000  0.000  0.059
   16  0.000  0.000  0.000  0.111  0.000  0.000  0.000  0.000  0.000  0.111
tot    0.045  0.008  0.010  0.505  0.000  0.000  0.000  0.000  0.000  0.567
 
band    19 # energy   -8.87388126 # occ.  2.00000000
 
ion      s     py     pz     px    dxy    dyz    dz2    dxz  x2-y2    tot
    1  0.000  0.001  0.254  0.000  0.000  0.000  0.000  0.000  0.000  0.255
    2  0.000  0.001  0.011  0.000  0.000  0.000  0.000  0.000  0.000  0.012
    3  0.005  0.002  0.008  0.000  0.000  0.000  0.000  0.000  0.000  0.015
    4  0.000  0.000  0.000  0.000  0.000  0.000  0.000  0.000  0.000  0.000
    5  0.001  0.013  0.004  0.000  0.000  0.000  0.000  0.000  0.000  0.017
    6  0.010  0.028  0.001  0.000  0.000  0.000  0.000  0.000  0.000  0.039
    7  0.000  0.010  0.000  0.000  0.000  0.000  0.000  0.000  0.000  0.011
    8  0.054  0.000  0.000  0.003  0.000  0.000  0.000  0.000  0.000  0.058
    9  0.051  0.000  0.000  0.003  0.000  0.000  0.000  0.000  0.000  0.054
   10  0.181  0.002  0.005  0.000  0.000  0.000  0.000  0.000  0.000  0.189
   11  0.001  0.000  0.000  0.000  0.000  0.000  0.000  0.000  0.000  0.001
   12  0.000  0.000  0.000  0.000  0.000  0.000  0.000  0.000  0.000  0.001
   13  0.007  0.000  0.000  0.000  0.000  0.000  0.000  0.000  0.000  0.008
   14  0.010  0.000  0.001  0.000  0.000  0.000  0.000  0.000  0.000  0.011
   15  0.000  0.001  0.000  0.000  0.000  0.000  0.000  0.000  0.000  0.001
   16  0.005  0.012  0.019  0.000  0.000  0.000  0.000  0.000  0.000  0.035
tot    0.326  0.071  0.303  0.007  0.000  0.000  0.000  0.000  0.000  0.707
 
band    20 # energy   -7.90551729 # occ.  2.00000000
 
ion      s     py     pz     px    dxy    dyz    dz2    dxz  x2-y2    tot
    1  0.001  0.028  0.003  0.001  0.000  0.000  0.000  0.000  0.000  0.032
    2  0.000  0.023  0.062  0.001  0.000  0.000  0.000  0.000  0.000  0.085
    3  0.001  0.069  0.028  0.000  0.000  0.000  0.000  0.000  0.000  0.098
    4  0.003  0.056  0.004  0.001  0.000  0.000  0.000  0.000  0.000  0.064
    5  0.002  0.046  0.000  0.001  0.000  0.000  0.000  0.000  0.000  0.049
    6  0.001  0.015  0.043  0.004  0.000  0.000  0.000  0.000  0.000  0.063
    7  0.000  0.158  0.042  0.000  0.000  0.000  0.000  0.000  0.000  0.201
    8  0.000  0.000  0.000  0.000  0.000  0.000  0.000  0.000  0.000  0.000
    9  0.001  0.000  0.000  0.000  0.000  0.000  0.000  0.000  0.000  0.001
   10  0.013  0.000  0.000  0.000  0.000  0.000  0.000  0.000  0.000  0.013
   11  0.000  0.000  0.000  0.000  0.000  0.000  0.000  0.000  0.000  0.000
   12  0.005  0.000  0.000  0.000  0.000  0.000  0.000  0.000  0.000  0.005
   13  0.040  0.001  0.000  0.000  0.000  0.000  0.000  0.000  0.000  0.041
   14  0.057  0.000  0.001  0.000  0.000  0.000  0.000  0.000  0.000  0.059
   15  0.002  0.003  0.004  0.008  0.000  0.000  0.000  0.000  0.000  0.017
   16  0.000  0.024  0.007  0.008  0.000  0.000  0.000  0.000  0.000  0.040
tot    0.125  0.425  0.196  0.023  0.000  0.000  0.000  0.000  0.000  0.769
 
band    21 # energy   -7.49317377 # occ.  2.00000000
 
ion      s     py     pz     px    dxy    dyz    dz2    dxz  x2-y2    tot
    1  0.000  0.002  0.000  0.007  0.000  0.000  0.000  0.000  0.000  0.009
    2  0.000  0.002  0.002  0.010  0.000  0.000  0.000  0.000  0.000  0.014
    3  0.000  0.005  0.001  0.002  0.000  0.000  0.000  0.000  0.000  0.008
    4  0.000  0.006  0.002  0.070  0.000  0.000  0.000  0.000  0.000  0.078
    5  0.000  0.001  0.000  0.004  0.000  0.000  0.000  0.000  0.000  0.005
    6  0.000  0.001  0.001  0.071  0.000  0.000  0.000  0.000  0.000  0.072
    7  0.000  0.004  0.001  0.015  0.000  0.000  0.000  0.000  0.000  0.020
    8  0.006  0.000  0.000  0.000  0.000  0.000  0.000  0.000  0.000  0.006
    9  0.005  0.000  0.000  0.000  0.000  0.000  0.000  0.000  0.000  0.005
   10  0.001  0.000  0.000  0.000  0.000  0.000  0.000  0.000  0.000  0.001
   11  0.001  0.000  0.001  0.002  0.000  0.000  0.000  0.000  0.000  0.004
   12  0.000  0.001  0.000  0.003  0.000  0.000  0.000  0.000  0.000  0.003
   13  0.002  0.000  0.000  0.000  0.000  0.000  0.000  0.000  0.000  0.002
   14  0.001  0.000  0.000  0.001  0.000  0.000  0.000  0.000  0.000  0.002
   15  0.009  0.007  0.009  0.196  0.000  0.000  0.000  0.000  0.000  0.220
   16  0.000  0.002  0.000  0.122  0.000  0.000  0.000  0.000  0.000  0.124