   15   15   10    1
  0.6786772E+02  0.7745500E-09  0.1175610E-08  0.1118000E-08  0.2000000E-15
  1.000000000000000E-004
  CAR 
 QM9                                     
     48      1     32
 
  0.0000000E+00  0.0000000E+00  0.0000000E+00  0.1000000E+01
      1        -30.174160   1.000000
      2        -24.173362   1.000000
      3        -22.762896   1.000000
      4        -21.056549   1.000000
      5        -18.921195   1.000000
      6        -17.370401   1.000000
      7        -15.576959   1.000000
      8        -14.944122   1.000000
      9        -13.503380   1.000000
     10        -12.713403   1.000000
     11        -12.407780   1.000000
     12        -11.535936   1.000000
     13        -11.048590   1.000000
     14        -10.403210   1.000000
     15         -9.753358   1.000000
     16         -9.383060   1.000000
     17         -9.267420   1.000000
     18         -8.895454   1.000000
     19         -8.820524   1.000000
     20         -7.894660   1.000000
     21         -6.533604   1.000000
     22         -6.265296   1.000000
     23         -5.201237   1.000000
     24         -5.122811   1.000000
     25         -1.063078   0.000000
     26         -0.681696   0.000000
     27         -0.365019   0.000000
     28          0.507605   0.000000
     29          0.730054   0.000000
     30          0.841673   0.000000
     31          1.126541   0.000000
     32          1.836607   0.000000
