PROCAR lm decomposed
# of k-points:    1         # of bands:   32         # of ions:   15

 k-point     1 :    0.00000000 0.00000000 0.00000000     weight = 1.00000000

band     1 # energy  -30.17415960 # occ.  2.00000000
 
ion      s     py     pz     px    dxy    dyz    dz2    dxz  x2-y2    tot
    1  0.000  0.000  0.000  0.000  0.000  0.000  0.000  0.000  0.000  0.000
    2  0.001  0.000  0.000  0.000  0.000  0.000  0.000  0.000  0.000  0.001
    3  0.047  0.006  0.023  0.000  0.000  0.000  0.000  0.000  0.000  0.077
    4  0.001  0.000  0.000  0.000  0.000  0.000  0.000  0.000  0.000  0.002
    5  0.000  0.000  0.000  0.000  0.000  0.000  0.000  0.000  0.000  0.000
    6  0.786  0.006  0.020  0.000  0.000  0.000  0.000  0.000  0.000  0.812
    7  0.000  0.000  0.000  0.000  0.000  0.000  0.000  0.000  0.000  0.000
    8  0.000  0.000  0.000  0.000  0.000  0.000  0.000  0.000  0.000  0.000
    9  0.000  0.000  0.000  0.000  0.000  0.000  0.000  0.000  0.000  0.000
   10  0.000  0.000  0.000  0.000  0.000  0.000  0.000  0.000  0.000  0.000
   11  0.000  0.000  0.000  0.000  0.000  0.000  0.000  0.000  0.000  0.000
   12  0.000  0.000  0.000  0.000  0.000  0.000  0.000  0.000  0.000  0.000
   13  0.000  0.000  0.000  0.000  0.000  0.000  0.000  0.000  0.000  0.000
   14  0.000  0.000  0.000  0.000  0.000  0.000  0.000  0.000  0.000  0.000
   15  0.000  0.000  0.000  0.000  0.000  0.000  0.000  0.000  0.000  0.000
tot    0.836  0.012  0.044  0.001  0.000  0.000  0.000  0.000  0.000  0.892
 
band     2 # energy  -24.17336200 # occ.  2.00000000
 
ion      s     py     pz     px    dxy    dyz    dz2    dxz  x2-y2    tot
    1  0.001  0.000  0.000  0.000  0.000  0.000  0.000  0.000  0.000  0.001
    2  0.033  0.005  0.002  0.000  0.000  0.000  0.000  0.000  0.000  0.040
    3  0.022  0.004  0.004  0.000  0.000  0.000  0.000  0.000  0.000  0.031
    4  0.141  0.003  0.003  0.000  0.000  0.000  0.000  0.000  0.000  0.147
    5  0.088  0.001  0.012  0.000  0.000  0.000  0.000  0.000  0.000  0.101
    6  0.006  0.000  0.000  0.000  0.000  0.000  0.000  0.000  0.000  0.006
    7  0.000  0.000  0.000  0.000  0.000  0.000  0.000  0.000  0.000  0.000
    8  0.000  0.000  0.000  0.000  0.000  0.000  0.000  0.000  0.000  0.000
    9  0.000  0.000  0.000  0.000  0.000  0.000  0.000  0.000  0.000  0.000
   10  0.008  0.000  0.001  0.000  0.000  0.000  0.000  0.000  0.000  0.009
   11  0.009  0.001  0.000  0.000  0.000  0.000  0.000  0.000  0.000  0.010
   12  0.002  0.000  0.000  0.000  0.000  0.000  0.000  0.000  0.000  0.002
   13  0.099  0.001  0.005  0.000  0.000  0.000  0.000  0.000  0.000  0.105
   14  0.195  0.023  0.001  0.000  0.000  0.000  0.000  0.000  0.000  0.219
   15  0.094  0.005  0.009  0.000  0.000  0.000  0.000  0.000  0.000  0.108
tot    0.698  0.044  0.037  0.001  0.000  0.000  0.000  0.000  0.000  0.781
 
band     3 # energy  -22.76289575 # occ.  2.00000000
 
ion      s     py     pz     px    dxy    dyz    dz2    dxz  x2-y2    tot
    1  0.003  0.001  0.000  0.000  0.000  0.000  0.000  0.000  0.000  0.004
    2  0.054  0.005  0.006  0.000  0.000  0.000  0.000  0.000  0.000  0.064
    3  0.001  0.003  0.004  0.000  0.000  0.000  0.000  0.000  0.000  0.008
    4  0.056  0.009  0.022  0.000  0.000  0.000  0.000  0.000  0.000  0.087
    5  0.052  0.011  0.001  0.000  0.000  0.000  0.000  0.000  0.000  0.063
    6  0.000  0.000  0.000  0.000  0.000  0.000  0.000  0.000  0.000  0.001
    7  0.000  0.000  0.000  0.000  0.000  0.000  0.000  0.000  0.000  0.000
    8  0.000  0.000  0.000  0.000  0.000  0.000  0.000  0.000  0.000  0.000
    9  0.000  0.000  0.000  0.000  0.000  0.000  0.000  0.000  0.000  0.000
   10  0.033  0.001  0.004  0.000  0.000  0.000  0.000  0.000  0.000  0.038
   11  0.032  0.005  0.000  0.000  0.000  0.000  0.000  0.000  0.000  0.038
   12  0.002  0.000  0.000  0.000  0.000  0.000  0.000  0.000  0.000  0.002
   13  0.310  0.002  0.005  0.001  0.000  0.000  0.000  0.000  0.000  0.318
   14  0.001  0.002  0.008  0.000  0.000  0.000  0.000  0.000  0.000  0.010
   15  0.166  0.004  0.013  0.000  0.000  0.000  0.000  0.000  0.000  0.183
tot    0.710  0.042  0.062  0.002  0.000  0.000  0.000  0.000  0.000  0.817
 
band     4 # energy  -21.05654944 # occ.  2.00000000
 
ion      s     py     pz     px    dxy    dyz    dz2    dxz  x2-y2    tot
    1  0.013  0.002  0.000  0.000  0.000  0.000  0.000  0.000  0.000  0.015
    2  0.083  0.002  0.007  0.000  0.000  0.000  0.000  0.000  0.000  0.091
    3  0.005  0.002  0.002  0.000  0.000  0.000  0.000  0.000  0.000  0.008
    4  0.009  0.001  0.052  0.001  0.000  0.000  0.000  0.000  0.000  0.062
    5  0.010  0.038  0.017  0.000  0.000  0.000  0.000  0.000  0.000  0.065
    6  0.002  0.000  0.000  0.000  0.000  0.000  0.000  0.000  0.000  0.002
    7  0.001  0.000  0.000  0.000  0.000  0.000  0.000  0.000  0.000  0.001
    8  0.001  0.000  0.000  0.000  0.000  0.000  0.000  0.000  0.000  0.001
    9  0.001  0.000  0.000  0.000  0.000  0.000  0.000  0.000  0.000  0.001
   10  0.019  0.001  0.002  0.000  0.000  0.000  0.000  0.000  0.000  0.022
   11  0.013  0.002  0.000  0.000  0.000  0.000  0.000  0.000  0.000  0.015
   12  0.001  0.000  0.000  0.000  0.000  0.000  0.000  0.000  0.000  0.001
   13  0.112  0.000  0.000  0.001  0.000  0.000  0.000  0.000  0.000  0.113
   14  0.259  0.020  0.000  0.000  0.000  0.000  0.000  0.000  0.000  0.279
   15  0.138  0.000  0.012  0.000  0.000  0.000  0.000  0.000  0.000  0.151
tot    0.665  0.067  0.093  0.003  0.000  0.000  0.000  0.000  0.000  0.829
 
band     5 # energy  -18.92119474 # occ.  2.00000000
 
ion      s     py     pz     px    dxy    dyz    dz2    dxz  x2-y2    tot
    1  0.064  0.004  0.000  0.000  0.000  0.000  0.000  0.000  0.000  0.068
    2  0.096  0.001  0.025  0.000  0.000  0.000  0.000  0.000  0.000  0.123
    3  0.154  0.000  0.013  0.000  0.000  0.000  0.000  0.000  0.000  0.167
    4  0.042  0.016  0.004  0.000  0.000  0.000  0.000  0.000  0.000  0.062
    5  0.087  0.009  0.001  0.000  0.000  0.000  0.000  0.000  0.000  0.097
    6  0.023  0.002  0.016  0.000  0.000  0.000  0.000  0.000  0.000  0.041
    7  0.008  0.000  0.001  0.000  0.000  0.000  0.000  0.000  0.000  0.009
    8  0.006  0.000  0.000  0.000  0.000  0.000  0.000  0.000  0.000  0.007
    9  0.006  0.000  0.000  0.000  0.000  0.000  0.000  0.000  0.000  0.007
   10  0.007  0.000  0.001  0.000  0.000  0.000  0.000  0.000  0.000  0.008
   11  0.009  0.001  0.000  0.000  0.000  0.000  0.000  0.000  0.000  0.010
   12  0.009  0.000  0.001  0.000  0.000  0.000  0.000  0.000  0.000  0.010
   13  0.030  0.002  0.002  0.001  0.000  0.000  0.000  0.000  0.000  0.036
   14  0.000  0.000  0.014  0.000  0.000  0.000  0.000  0.000  0.000  0.014
   15  0.071  0.031  0.002  0.000  0.000  0.000  0.000  0.000  0.000  0.103
tot    0.612  0.067  0.079  0.002  0.000  0.000  0.000  0.000  0.000  0.760
 
band     6 # energy  -17.37040056 # occ.  2.00000000
 
ion      s     py     pz     px    dxy    dyz    dz2    dxz  x2-y2    tot
    1  0.231  0.001  0.000  0.000  0.000  0.000  0.000  0.000  0.000  0.233
    2  0.012  0.049  0.002  0.000  0.000  0.000  0.000  0.000  0.000  0.064
    3  0.085  0.023  0.000  0.000  0.000  0.000  0.000  0.000  0.000  0.109
    4  0.036  0.037  0.002  0.000  0.000  0.000  0.000  0.000  0.000  0.075
    5  0.003  0.016  0.002  0.000  0.000  0.000  0.000  0.000  0.000  0.020
    6  0.009  0.011  0.007  0.000  0.000  0.000  0.000  0.000  0.000  0.027
    7  0.032  0.001  0.003  0.000  0.000  0.000  0.000  0.000  0.000  0.035
    8  0.033  0.001  0.000  0.002  0.000  0.000  0.000  0.000  0.000  0.037
    9  0.033  0.000  0.001  0.002  0.000  0.000  0.000  0.000  0.000  0.037
   10  0.002  0.000  0.000  0.000  0.000  0.000  0.000  0.000  0.000  0.002
   11  0.010  0.001  0.000  0.000  0.000  0.000  0.000  0.000  0.000  0.012
   12  0.001  0.000  0.000  0.000  0.000  0.000  0.000  0.000  0.000  0.001
   13  0.013  0.011  0.002  0.000  0.000  0.000  0.000  0.000  0.000  0.025
   14  0.037  0.000  0.005  0.000  0.000  0.000  0.000  0.000  0.000  0.042
   15  0.006  0.007  0.000  0.000  0.000  0.000  0.000  0.000  0.000  0.013
tot    0.544  0.157  0.024  0.005  0.000  0.000  0.000  0.000  0.000  0.731
 
band     7 # energy  -15.57695906 # occ.  2.00000000
 
ion      s     py     pz     px    dxy    dyz    dz2    dxz  x2-y2    tot
    1  0.001  0.000  0.002  0.000  0.000  0.000  0.000  0.000  0.000  0.003
    2  0.000  0.000  0.059  0.001  0.000  0.000  0.000  0.000  0.000  0.061
    3  0.067  0.007  0.000  0.000  0.000  0.000  0.000  0.000  0.000  0.074
    4  0.053  0.041  0.010  0.000  0.000  0.000  0.000  0.000  0.000  0.104
    5  0.114  0.019  0.000  0.000  0.000  0.000  0.000  0.000  0.000  0.133
    6  0.018  0.007  0.048  0.001  0.000  0.000  0.000  0.000  0.000  0.074
    7  0.002  0.000  0.000  0.000  0.000  0.000  0.000  0.000  0.000  0.002
    8  0.000  0.000  0.000  0.000  0.000  0.000  0.000  0.000  0.000  0.000
    9  0.000  0.000  0.000  0.000  0.000  0.000  0.000  0.000  0.000  0.000
   10  0.030  0.001  0.002  0.000  0.000  0.000  0.000  0.000  0.000  0.033
   11  0.002  0.000  0.001  0.000  0.000  0.000  0.000  0.000  0.000  0.002
   12  0.033  0.000  0.003  0.000  0.000  0.000  0.000  0.000  0.000  0.036
   13  0.012  0.000  0.052  0.003  0.000  0.000  0.000  0.000  0.000  0.067
   14  0.002  0.000  0.140  0.001  0.000  0.000  0.000  0.000  0.000  0.143
   15  0.037  0.026  0.011  0.000  0.000  0.000  0.000  0.000  0.000  0.074
tot    0.370  0.103  0.328  0.007  0.000  0.000  0.000  0.000  0.000  0.807
 
band     8 # energy  -14.94412159 # occ.  2.00000000
 
ion      s     py     pz     px    dxy    dyz    dz2    dxz  x2-y2    tot
    1  0.086  0.010  0.000  0.000  0.000  0.000  0.000  0.000  0.000  0.097
    2  0.073  0.020  0.004  0.000  0.000  0.000  0.000  0.000  0.000  0.097
    3  0.000  0.053  0.039  0.000  0.000  0.000  0.000  0.000  0.000  0.093
    4  0.058  0.010  0.027  0.000  0.000  0.000  0.000  0.000  0.000  0.096
    5  0.023  0.013  0.017  0.000  0.000  0.000  0.000  0.000  0.000  0.054
    6  0.001  0.018  0.000  0.000  0.000  0.000  0.000  0.000  0.000  0.020
    7  0.019  0.000  0.002  0.000  0.000  0.000  0.000  0.000  0.000  0.021
    8  0.024  0.000  0.000  0.002  0.000  0.000  0.000  0.000  0.000  0.026
    9  0.024  0.000  0.001  0.001  0.000  0.000  0.000  0.000  0.000  0.026
   10  0.005  0.001  0.000  0.000  0.000  0.000  0.000  0.000  0.000  0.006
   11  0.042  0.004  0.000  0.000  0.000  0.000  0.000  0.000  0.000  0.047
   12  0.010  0.001  0.000  0.000  0.000  0.000  0.000  0.000  0.000  0.011
   13  0.013  0.067  0.024  0.003  0.000  0.000  0.000  0.000  0.000  0.106
   14  0.019  0.000  0.000  0.000  0.000  0.000  0.000  0.000  0.000  0.019
   15  0.005  0.032  0.023  0.000  0.000  0.000  0.000  0.000  0.000  0.062
tot    0.402  0.231  0.140  0.007  0.000  0.000  0.000  0.000  0.000  0.779
 
band     9 # energy  -13.50337966 # occ.  2.00000000
 
ion      s     py     pz     px    dxy    dyz    dz2    dxz  x2-y2    tot
    1  0.000  0.000  0.005  0.000  0.000  0.000  0.000  0.000  0.000  0.005
    2  0.002  0.001  0.046  0.000  0.000  0.000  0.000  0.000  0.000  0.050
    3  0.006  0.061  0.000  0.000  0.000  0.000  0.000  0.000  0.000  0.067
    4  0.000  0.060  0.000  0.000  0.000  0.000  0.000  0.000  0.000  0.061
    5  0.006  0.028  0.031  0.000  0.000  0.000  0.000  0.000  0.000  0.065
    6  0.005  0.002  0.096  0.001  0.000  0.000  0.000  0.000  0.000  0.105
    7  0.002  0.000  0.000  0.000  0.000  0.000  0.000  0.000  0.000  0.002
    8  0.001  0.000  0.000  0.000  0.000  0.000  0.000  0.000  0.000  0.001
    9  0.001  0.000  0.000  0.000  0.000  0.000  0.000  0.000  0.000  0.001
   10  0.081  0.001  0.005  0.001  0.000  0.000  0.000  0.000  0.000  0.087
   11  0.033  0.003  0.000  0.000  0.000  0.000  0.000  0.000  0.000  0.037
   12  0.007  0.001  0.000  0.000  0.000  0.000  0.000  0.000  0.000  0.008
   13  0.000  0.068  0.102  0.004  0.000  0.000  0.000  0.000  0.000  0.173
   14  0.002  0.006  0.041  0.000  0.000  0.000  0.000  0.000  0.000  0.049
   15  0.001  0.055  0.024  0.000  0.000  0.000  0.000  0.000  0.000  0.080
tot    0.147  0.285  0.352  0.008  0.000  0.000  0.000  0.000  0.000  0.792
 
band    10 # energy  -12.71340349 # occ.  2.00000000
 
ion      s     py     pz     px    dxy    dyz    dz2    dxz  x2-y2    tot
    1  0.009  0.015  0.005  0.000  0.000  0.000  0.000  0.000  0.000  0.029
    2  0.007  0.009  0.053  0.001  0.000  0.000  0.000  0.000  0.000  0.070
    3  0.001  0.015  0.089  0.001  0.000  0.000  0.000  0.000  0.000  0.106
    4  0.002  0.019  0.039  0.000  0.000  0.000  0.000  0.000  0.000  0.060
    5  0.001  0.045  0.002  0.000  0.000  0.000  0.000  0.000  0.000  0.048
    6  0.013  0.070  0.166  0.003  0.000  0.000  0.000  0.000  0.000  0.253
    7  0.016  0.000  0.001  0.000  0.000  0.000  0.000  0.000  0.000  0.017
    8  0.002  0.000  0.000  0.000  0.000  0.000  0.000  0.000  0.000  0.003
    9  0.002  0.000  0.000  0.000  0.000  0.000  0.000  0.000  0.000  0.003
   10  0.005  0.001  0.000  0.000  0.000  0.000  0.000  0.000  0.000  0.006
   11  0.009  0.001  0.000  0.000  0.000  0.000  0.000  0.000  0.000  0.010
   12  0.001  0.000  0.000  0.000  0.000  0.000  0.000  0.000  0.000  0.001
   13  0.000  0.020  0.028  0.002  0.000  0.000  0.000  0.000  0.000  0.051
   14  0.015  0.008  0.024  0.001  0.000  0.000  0.000  0.000  0.000  0.048
   15  0.005  0.080  0.007  0.000  0.000  0.000  0.000  0.000  0.000  0.093
tot    0.090  0.285  0.414  0.008  0.000  0.000  0.000  0.000  0.000  0.798
 
band    11 # energy  -12.40777977 # occ.  2.00000000
 
ion      s     py     pz     px    dxy    dyz    dz2    dxz  x2-y2    tot
    1  0.007  0.015  0.003  0.000  0.000  0.000  0.000  0.000  0.000  0.025
    2  0.040  0.000  0.017  0.000  0.000  0.000  0.000  0.000  0.000  0.057
    3  0.003  0.003  0.056  0.002  0.000  0.000  0.000  0.000  0.000  0.064
    4  0.006  0.011  0.076  0.000  0.000  0.000  0.000  0.000  0.000  0.093
    5  0.018  0.027  0.010  0.000  0.000  0.000  0.000  0.000  0.000  0.055
    6  0.008  0.079  0.110  0.001  0.000  0.000  0.000  0.000  0.000  0.198
    7  0.002  0.000  0.000  0.000  0.000  0.000  0.000  0.000  0.000  0.002
    8  0.008  0.000  0.000  0.001  0.000  0.000  0.000  0.000  0.000  0.008
    9  0.008  0.000  0.000  0.000  0.000  0.000  0.000  0.000  0.000  0.009
   10  0.014  0.002  0.000  0.000  0.000  0.000  0.000  0.000  0.000  0.016
   11  0.031  0.002  0.001  0.000  0.000  0.000  0.000  0.000  0.000  0.034
   12  0.034  0.000  0.002  0.000  0.000  0.000  0.000  0.000  0.000  0.036
   13  0.000  0.070  0.089  0.008  0.000  0.000  0.000  0.000  0.000  0.167
   14  0.004  0.007  0.026  0.001  0.000  0.000  0.000  0.000  0.000  0.038
   15  0.013  0.001  0.000  0.000  0.000  0.000  0.000  0.000  0.000  0.014
tot    0.195  0.217  0.391  0.013  0.000  0.000  0.000  0.000  0.000  0.816
 
band    12 # energy  -11.53593614 # occ.  2.00000000
 
ion      s     py     pz     px    dxy    dyz    dz2    dxz  x2-y2    tot
    1  0.001  0.002  0.010  0.000  0.000  0.000  0.000  0.000  0.000  0.012
    2  0.000  0.003  0.018  0.000  0.000  0.000  0.000  0.000  0.000  0.021
    3  0.006  0.065  0.000  0.000  0.000  0.000  0.000  0.000  0.000  0.071
    4  0.000  0.047  0.005  0.000  0.000  0.000  0.000  0.000  0.000  0.052
    5  0.004  0.034  0.000  0.000  0.000  0.000  0.000  0.000  0.000  0.038
    6  0.001  0.015  0.039  0.000  0.000  0.000  0.000  0.000  0.000  0.055
    7  0.002  0.000  0.000  0.000  0.000  0.000  0.000  0.000  0.000  0.003
    8  0.004  0.000  0.000  0.000  0.000  0.000  0.000  0.000  0.000  0.004
    9  0.004  0.000  0.000  0.000  0.000  0.000  0.000  0.000  0.000  0.004
   10  0.095  0.000  0.006  0.001  0.000  0.000  0.000  0.000  0.000  0.103
   11  0.116  0.008  0.000  0.001  0.000  0.000  0.000  0.000  0.000  0.124
   12  0.009  0.000  0.001  0.000  0.000  0.000  0.000  0.000  0.000  0.010
   13  0.000  0.189  0.054  0.002  0.000  0.000  0.000  0.000  0.000  0.244
   14  0.010  0.000  0.053  0.001  0.000  0.000  0.000  0.000  0.000  0.063
   15  0.003  0.021  0.006  0.000  0.000  0.000  0.000  0.000  0.000  0.030
tot    0.253  0.384  0.191  0.005  0.000  0.000  0.000  0.000  0.000  0.834
 
band    13 # energy  -11.04858975 # occ.  2.00000000
 
ion      s     py     pz     px    dxy    dyz    dz2    dxz  x2-y2    tot
    1  0.000  0.001  0.000  0.019  0.000  0.000  0.000  0.000  0.000  0.020
    2  0.000  0.000  0.001  0.039  0.000  0.000  0.000  0.000  0.000  0.040
    3  0.000  0.000  0.001  0.094  0.000  0.000  0.000  0.000  0.000  0.096
    4  0.000  0.000  0.000  0.048  0.000  0.000  0.000  0.000  0.000  0.049
    5  0.000  0.000  0.003  0.012  0.000  0.000  0.000  0.000  0.000  0.015
    6  0.000  0.000  0.002  0.298  0.000  0.000  0.000  0.000  0.000  0.300
    7  0.000  0.000  0.000  0.000  0.000  0.000  0.000  0.000  0.000  0.000
    8  0.010  0.000  0.000  0.000  0.000  0.000  0.000  0.000  0.000  0.010
    9  0.006  0.000  0.000  0.000  0.000  0.000  0.000  0.000  0.000  0.006
   10  0.000  0.000  0.000  0.000  0.000  0.000  0.000  0.000  0.000  0.000
   11  0.000  0.000  0.000  0.000  0.000  0.000  0.000  0.000  0.000  0.000
   12  0.002  0.000  0.000  0.000  0.000  0.000  0.000  0.000  0.000  0.002
   13  0.001  0.000  0.001  0.015  0.000  0.000  0.000  0.000  0.000  0.017
   14  0.000  0.000  0.000  0.026  0.000  0.000  0.000  0.000  0.000  0.027
   15  0.000  0.000  0.001  0.021  0.000  0.000  0.000  0.000  0.000  0.022
tot    0.019  0.003  0.009  0.574  0.000  0.000  0.000  0.000  0.000  0.605
 
band    14 # energy  -10.40320985 # occ.  2.00000000
 
ion      s     py     pz     px    dxy    dyz    dz2    dxz  x2-y2    tot
    1  0.001  0.058  0.007  0.002  0.000  0.000  0.000  0.000  0.000  0.068
    2  0.010  0.048  0.000  0.000  0.000  0.000  0.000  0.000  0.000  0.058
    3  0.000  0.006  0.000  0.001  0.000  0.000  0.000  0.000  0.000  0.008
    4  0.004  0.002  0.051  0.000  0.000  0.000  0.000  0.000  0.000  0.057
    5  0.000  0.004  0.149  0.002  0.000  0.000  0.000  0.000  0.000  0.155
    6  0.000  0.022  0.019  0.004  0.000  0.000  0.000  0.000  0.000  0.045
    7  0.029  0.000  0.001  0.000  0.000  0.000  0.000  0.000  0.000  0.030
    8  0.001  0.000  0.000  0.000  0.000  0.000  0.000  0.000  0.000  0.002
    9  0.004  0.000  0.000  0.000  0.000  0.000  0.000  0.000  0.000  0.005
   10  0.013  0.001  0.000  0.000  0.000  0.000  0.000  0.000  0.000  0.014
   11  0.001  0.000  0.000  0.000  0.000  0.000  0.000  0.000  0.000  0.001
   12  0.095  0.002  0.003  0.000  0.000  0.000  0.000  0.000  0.000  0.100
   13  0.004  0.007  0.048  0.004  0.000  0.000  0.000  0.000  0.000  0.062
   14  0.000  0.009  0.079  0.001  0.000  0.000  0.000  0.000  0.000  0.089
   15  0.000  0.008  0.037  0.001  0.000  0.000  0.000  0.000  0.000  0.046
tot    0.163  0.166  0.396  0.015  0.000  0.000  0.000  0.000  0.000  0.740
 
band    15 # energy   -9.75335829 # occ.  2.00000000
 
ion      s     py     pz     px    dxy    dyz    dz2    dxz  x2-y2    tot
    1  0.000  0.000  0.001  0.130  0.000  0.000  0.000  0.000  0.000  0.131
    2  0.000  0.000  0.001  0.039  0.000  0.000  0.000  0.000  0.000  0.040
    3  0.000  0.000  0.000  0.003  0.000  0.000  0.000  0.000  0.000  0.003
    4  0.000  0.000  0.000  0.003  0.000  0.000  0.000  0.000  0.000  0.003
    5  0.000  0.000  0.000  0.021  0.000  0.000  0.000  0.000  0.000  0.021
    6  0.000  0.001  0.002  0.263  0.000  0.000  0.000  0.000  0.000  0.266
    7  0.000  0.000  0.000  0.001  0.000  0.000  0.000  0.000  0.000  0.001
    8  0.066  0.001  0.001  0.001  0.000  0.000  0.000  0.000  0.000  0.069
    9  0.063  0.001  0.002  0.001  0.000  0.000  0.000  0.000  0.000  0.066
   10  0.000  0.000  0.000  0.000  0.000  0.000  0.000  0.000  0.000  0.000
   11  0.000  0.000  0.000  0.000  0.000  0.000  0.000  0.000  0.000  0.000
   12  0.000  0.000  0.000  0.000  0.000  0.000  0.000  0.000  0.000  0.000
   13  0.000  0.000  0.000  0.001  0.000  0.000  0.000  0.000  0.000  0.001
   14  0.000  0.000  0.000  0.016  0.000  0.000  0.000  0.000  0.000  0.016
   15  0.000  0.000  0.000  0.045  0.000  0.000  0.000  0.000  0.000  0.045
tot    0.129  0.003  0.008  0.522  0.000  0.000  0.000  0.000  0.000  0.662
 
band    16 # energy   -9.38305988 # occ.  2.00000000
 
ion      s     py     pz     px    dxy    dyz    dz2    dxz  x2-y2    tot
    1  0.000  0.003  0.001  0.094  0.000  0.000  0.000  0.000  0.000  0.098
    2  0.000  0.002  0.000  0.005  0.000  0.000  0.000  0.000  0.000  0.007
    3  0.000  0.000  0.000  0.000  0.000  0.000  0.000  0.000  0.000  0.000
    4  0.000  0.000  0.000  0.088  0.000  0.000  0.000  0.000  0.000  0.088
    5  0.000  0.001  0.001  0.035  0.000  0.000  0.000  0.000  0.000  0.037
    6  0.000  0.015  0.001  0.078  0.000  0.000  0.000  0.000  0.000  0.094
    7  0.000  0.000  0.000  0.001  0.000  0.000  0.000  0.000  0.000  0.001
    8  0.055  0.000  0.001  0.001  0.000  0.000  0.000  0.000  0.000  0.058
    9  0.043  0.001  0.001  0.000  0.000  0.000  0.000  0.000  0.000  0.045
   10  0.000  0.000  0.000  0.001  0.000  0.000  0.000  0.000  0.000  0.001
   11  0.000  0.000  0.000  0.001  0.000  0.000  0.000  0.000  0.000  0.001
   12  0.000  0.000  0.000  0.000  0.000  0.000  0.000  0.000  0.000  0.001
   13  0.001  0.001  0.003  0.055  0.000  0.000  0.000  0.000  0.000  0.060
   14  0.000  0.000  0.002  0.105  0.000  0.000  0.000  0.000  0.000  0.108
   15  0.000  0.001  0.000  0.007  0.000  0.000  0.000  0.000  0.000  0.008
tot    0.101  0.024  0.011  0.471  0.000  0.000  0.000  0.000  0.000  0.607
 
band    17 # energy   -9.26741950 # occ.  2.00000000
 
ion      s     py     pz     px    dxy    dyz    dz2    dxz  x2-y2    tot
    1  0.001  0.051  0.038  0.001  0.000  0.000  0.000  0.000  0.000  0.091
    2  0.009  0.040  0.015  0.000  0.000  0.000  0.000  0.000  0.000  0.065
    3  0.003  0.001  0.001  0.000  0.000  0.000  0.000  0.000  0.000  0.005
    4  0.003  0.003  0.002  0.002  0.000  0.000  0.000  0.000  0.000  0.011
    5  0.001  0.025  0.029  0.003  0.000  0.000  0.000  0.000  0.000  0.058
    6  0.000  0.286  0.090  0.001  0.000  0.000  0.000  0.000  0.000  0.377
    7  0.004  0.001  0.000  0.000  0.000  0.000  0.000  0.000  0.000  0.005
    8  0.010  0.000  0.000  0.001  0.000  0.000  0.000  0.000  0.000  0.011
    9  0.031  0.000  0.000  0.001  0.000  0.000  0.000  0.000  0.000  0.032
   10  0.003  0.000  0.000  0.000  0.000  0.000  0.000  0.000  0.000  0.004
   11  0.001  0.000  0.000  0.000  0.000  0.000  0.000  0.000  0.000  0.001
   12  0.036  0.000  0.001  0.000  0.000  0.000  0.000  0.000  0.000  0.037
   13  0.000  0.001  0.008  0.000  0.000  0.000  0.000  0.000  0.000  0.009
   14  0.000  0.004  0.004  0.003  0.000  0.000  0.000  0.000  0.000  0.011
   15  0.002  0.041  0.001  0.000  0.000  0.000  0.000  0.000  0.000  0.044
tot    0.104  0.453  0.191  0.014  0.000  0.000  0.000  0.000  0.000  0.761
 
band    18 # energy   -8.89545384 # occ.  2.00000000
 
ion      s     py     pz     px    dxy    dyz    dz2    dxz  x2-y2    tot
    1  0.000  0.038  0.119  0.002  0.000  0.000  0.000  0.000  0.000  0.159
    2  0.002  0.060  0.024  0.000  0.000  0.000  0.000  0.000  0.000  0.086
    3  0.002  0.043  0.022  0.000  0.000  0.000  0.000  0.000  0.000  0.067
    4  0.010  0.042  0.000  0.000  0.000  0.000  0.000  0.000  0.000  0.053
    5  0.000  0.001  0.002  0.000  0.000  0.000  0.000  0.000  0.000  0.003
    6  0.000  0.121  0.024  0.000  0.000  0.000  0.000  0.000  0.000  0.145
    7  0.059  0.002  0.001  0.000  0.000  0.000  0.000  0.000  0.000  0.062
    8  0.049  0.000  0.000  0.003  0.000  0.000  0.000  0.000  0.000  0.052
    9  0.045  0.000  0.000  0.003  0.000  0.000  0.000  0.000  0.000  0.047
   10  0.001  0.000  0.000  0.000  0.000  0.000  0.000  0.000  0.000  0.001
   11  0.005  0.000  0.000  0.000  0.000  0.000  0.000  0.000  0.000  0.006
   12  0.001  0.000  0.000  0.000  0.000  0.000  0.000  0.000  0.000  0.001
   13  0.000  0.008  0.002  0.000  0.000  0.000  0.000  0.000  0.000  0.011
   14  0.002  0.009  0.004  0.001  0.000  0.000  0.000  0.000  0.000  0.015
   15  0.007  0.011  0.003  0.000  0.000  0.000  0.000  0.000  0.000  0.021
tot    0.182  0.336  0.201  0.009  0.000  0.000  0.000  0.000  0.000  0.728
 
band    19 # energy   -8.82052366 # occ.  2.00000000
 
ion      s     py     pz     px    dxy    dyz    dz2    dxz  x2-y2    tot
    1  0.000  0.076  0.115  0.003  0.000  0.000  0.000  0.000  0.000  0.194
    2  0.000  0.075  0.002  0.000  0.000  0.000  0.000  0.000  0.000  0.077
    3  0.000  0.001  0.001  0.000  0.000  0.000  0.000  0.000  0.000  0.002
    4  0.002  0.006  0.001  0.000  0.000  0.000  0.000  0.000  0.000  0.009
    5  0.005  0.022  0.033  0.001  0.000  0.000  0.000  0.000  0.000  0.061
    6  0.000  0.072  0.010  0.000  0.000  0.000  0.000  0.000  0.000  0.082
    7  0.143  0.000  0.006  0.000  0.000  0.000  0.000  0.000  0.000  0.150
    8  0.007  0.001  0.000  0.000  0.000  0.000  0.000  0.000  0.000  0.008
    9  0.006  0.001  0.000  0.000  0.000  0.000  0.000  0.000  0.000  0.008
   10  0.001  0.000  0.000  0.000  0.000  0.000  0.000  0.000  0.000  0.001
   11  0.000  0.000  0.000  0.000  0.000  0.000  0.000  0.000  0.000  0.000
   12  0.030  0.000  0.001  0.000  0.000  0.000  0.000  0.000  0.000  0.031
   13  0.001  0.000  0.002  0.000  0.000  0.000  0.000  0.000  0.000  0.002
   14  0.006  0.037  0.008  0.000  0.000  0.000  0.000  0.000  0.000  0.050
   15  0.004  0.035  0.012  0.000  0.000  0.000  0.000  0.000  0.000  0.051
tot    0.205  0.326  0.191  0.005  0.000  0.000  0.000  0.000  0.000  0.727
 
band    20 # energy   -7.89465981 # occ.  2.00000000
 
ion      s     py     pz     px    dxy    dyz    dz2    dxz  x2-y2    tot
    1  0.000  0.000  0.001  0.033  0.000  0.000  0.000  0.000  0.000  0.034
    2  0.000  0.000  0.001  0.023  0.000  0.000  0.000  0.000  0.000  0.024
    3  0.000  0.000  0.000  0.000  0.000  0.000  0.000  0.000  0.000  0.000
    4  0.000  0.001  0.000  0.061  0.000  0.000  0.000  0.000  0.000  0.061
    5  0.000  0.000  0.002  0.072  0.000  0.000  0.000  0.000  0.000  0.074
    6  0.000  0.000  0.000  0.005  0.000  0.000  0.000  0.000  0.000  0.005
    7  0.000  0.000  0.000  0.000  0.000  0.000  0.000  0.000  0.000  0.000
    8  0.020  0.000  0.000  0.000  0.000  0.000  0.000  0.000  0.000  0.021
    9  0.022  0.000  0.001  0.000  0.000  0.000  0.000  0.000  0.000  0.023
   10  0.000  0.000  0.000  0.002  0.000  0.000  0.000  0.000  0.000  0.003
   11  0.000  0.000  0.000  0.002  0.000  0.000  0.000  0.000  0.000  0.003
   12  0.000  0.000  0.000  0.001  0.000  0.000  0.000  0.000  0.000  0.001
   13  0.003  0.000  0.010  0.159  0.000  0.000  0.000  0.000  0.000  0.172
   14  0.000  0.000  0.000  0.001  0.000  0.000  0.000  0.000  0.000  0.001
   15  0.000  0.000  0.002  0.156  0.000  0.000  0.000  0.000  0.000  0.158
tot    0.046  0.002  0.017  0.515  0.000  0.000  0.000  0.000  0.000  0.580
 
band    21 # energy   -6.53360407 # occ.  2.00000000
 
ion      s     py     pz     px    dxy    dyz    dz2    dxz  x2-y2    tot
    1  0.000  0.001  0.001  0.000  0.000  0.000  0.000  0.000  0.000  0.002
    2  0.006  0.001  0.022  0.000  0.000  0.000  0.000  0.000  0.000  0.030
    3  0.022  0.002  0.002  0.000  0.000  0.000  0.000  0.000  0.000  0.026
    4  0.006  0.015  0.019  0.000  0.000  0.000  0.000  0.000  0.000  0.040
    5  0.023  0.003  0.002  0.000  0.000  0.000  0.000  0.000  0.000  0.027
    6  0.001  0.009  0.015  0.000  0.000  0.000  0.000  0.000  0.000  0.026
    7  0.001  0.000  0.000  0.000  0.000  0.000  0.000  0.000  0.000  0.001
    8  0.000  0.000  0.000  0.000  0.000  0.000  0.000  0.000  0.000  0.000
    9  0.000  0.000  0.000  0.000  0.000  0.000  0.000  0.000  0.000  0.000
   10  0.000  0.000  0.000  0.000  0.000  0.000  0.000  0.000  0.000  0.000
   11  0.001  0.000  0.000  0.000  0.000  0.000  0.000  0.000  0.000  0.001
   12  0.053  0.000  0.001  0.000  0.000  0.000  0.000  0.000  0.000  0.054
   13  0.001  0.000  0.001  0.000  0.000  0.000  0.000  0.000  0.000  0.002
   14  0.068  0.185  0.026  0.001  0.000  0.000  0.000  0.000  0.000  0.280
   15  0.053  0.001  0.135  0.001  0.000  0.000  0.000  0.000  0.000  0.189
tot    0.234  0.218  0.225  0.003  0.000  0.000  0.000  0.000  0.000  0.679
 
band    22 # energy   -6.26529552 # occ.  2.00000000
 
ion      s     py     pz     px    dxy    dyz    dz2    dxz  x2-y2    tot
    1  0.000  0.000  0.000  0.020  0.000  0.000  0.000  0.000  0.000  0.020
    2  0.000  0.000  0.001  0.101  0.000  0.000  0.000  0.000  0.000  0.102
    3  0.000  0.000  0.001  0.050  0.000  0.000  0.000  0.000  0.000  0.051
    4  0.000  0.000  0.000  0.000  0.000  0.000  0.000  0.000  0.000  0.000
    5  0.000  0.000  0.001  0.044  0.000  0.000  0.000  0.000  0.000  0.045
    6  0.000  0.000  0.001  0.049  0.000  0.000  0.000  0.000  0.000  0.049
    7  0.000  0.000  0.000  0.000  0.000  0.000  0.000  0.000  0.000  0.000
    8  0.018  0.000  0.000  0.000  0.000  0.000  0.000  0.000  0.000  0.019
    9  0.017  0.000  0.000  0.000  0.000  0.000  0.000  0.000  0.000  0.018
   10  0.000  0.000  0.000  0.001  0.000  0.000  0.000  0.000  0.000  0.001
   11  0.000  0.000  0.000  0.001  0.000  0.000  0.000  0.000  0.000  0.001
   12  0.000  0.000  0.000  0.001  0.000  0.000  0.000  0.000  0.000  0.001
   13  0.001  0.000  0.002  0.048  0.000  0.000  0.000  0.000  0.000  0.052
   14  0.000  0.000  0.002  0.195  0.000  0.000  0.000  0.000  0.000  0.197
   15  0.000  0.000  0.000  0.043  0.000  0.000  0.000  0.000  0.000  0.043
tot    0.037  0.000  0.008  0.553  0.000  0.000  0.000  0.000  0.000  0.598
 
band    23 # energy   -5.20123729 # occ.  2.00000000
 
ion      s     py     pz     px    dxy    dyz    dz2    dxz  x2-y2    tot