QM9                                     
           1
     7.745500    0.000000    0.000000
     0.000000   11.756100    0.000000
     0.000000    0.000000   11.180000
   C    F    H    N 
     5     1     6     3
Direct configuration=     1
   0.50755923  0.70883201  0.55058140
   0.50311794  0.58117063  0.54780859
   0.51635143  0.52042769  0.44292487
   0.51162611  0.40102585  0.44569767
   0.48271900  0.41272191  0.64706619
   0.53509780  0.57190735  0.33593918
   0.52491124  0.74481333  0.46147585
   0.38732167  0.74138532  0.58894454
   0.61267833  0.73759155  0.60855993
   0.56299787  0.37718291  0.26833631
   0.54266348  0.25518667  0.35244186
   0.46904654  0.36792814  0.73166369
   0.51925634  0.33895595  0.34288909
   0.49522949  0.34690076  0.55011628
   0.48540443  0.52534429  0.65270125
Direct configuration=     2
   0.50754245  0.70849177  0.55051605
   0.50315422  0.58199806  0.54792883
   0.51620504  0.51979410  0.44398425
   0.51168550  0.40092908  0.44524840
   0.48263157  0.41240728  0.64723388
   0.53534363  0.57268847  0.33449737
   0.52496311  0.74496221  0.46123293
   0.38699626  0.74145295  0.58905481
   0.61295824  0.73764821  0.60871912
   0.56315986  0.37735271  0.26786230
   0.54272707  0.25472334  0.35247144
   0.46899501  0.36774936  0.73199612
   0.51910167  0.33905282  0.34305879
   0.49516493  0.34647785  0.55026757
   0.48535233  0.52564614  0.65307485
Direct configuration=     3
   0.50754601  0.70856391  0.55052990
   0.50314652  0.58182262  0.54790333
   0.51623608  0.51992843  0.44375963
   0.51167291  0.40094960  0.44534366
   0.48265011  0.41247399  0.64719832
   0.53529151  0.57252285  0.33480307
   0.52495211  0.74493064  0.46128443
   0.38706525  0.74143861  0.58903143
   0.61289889  0.73763620  0.60868536
   0.56312551  0.37731671  0.26796281
   0.54271359  0.25482158  0.35246517
   0.46900594  0.36778726  0.73192563
   0.51913447  0.33903228  0.34302281
   0.49517862  0.34656751  0.55023549
   0.48536337  0.52558214  0.65299564
Direct configuration=     4
   0.50757091  0.70879830  0.55048264
   0.50311212  0.58194685  0.54823835
   0.51630834  0.52016577  0.44358762
   0.51164043  0.40068959  0.44549990
   0.48258939  0.41244630  0.64726724
   0.53535382  0.57275746  0.33434093
   0.52497953  0.74500974  0.46117005
   0.38691843  0.74145502  0.58909657
   0.61301545  0.73764663  0.60876757
   0.56309275  0.37735832  0.26778134
   0.54267731  0.25465689  0.35248933
   0.46895346  0.36760938  0.73226066
   0.51931138  0.33883521  0.34263071
   0.49513343  0.34628292  0.55027153
   0.48532413  0.52571600  0.65326225
Direct configuration=     5
   0.50757736  0.70885900  0.55047040
   0.50310321  0.58197903  0.54832513
   0.51632706  0.52022724  0.44354306
   0.51163202  0.40062225  0.44554036
   0.48257366  0.41243912  0.64728509
   0.53536996  0.57281822  0.33422123
   0.52498663  0.74503022  0.46114042
   0.38688041  0.74145927  0.58911345
   0.61304564  0.73764933  0.60878886
   0.56308427  0.37736909  0.26773434
   0.54266792  0.25461423  0.35249559
   0.46893987  0.36756331  0.73234743
   0.51935720  0.33878417  0.34252916
   0.49512172  0.34620921  0.55028087
   0.48531397  0.52575067  0.65333131
Direct configuration=     6
   0.50755969  0.70913501  0.55054928
   0.50313449  0.58198126  0.54826334
   0.51638801  0.52038119  0.44338399
   0.51168477  0.40061336  0.44529426
   0.48248123  0.41238675  0.64752820
   0.53539859  0.57291103  0.33409438
   0.52501180  0.74511345  0.46103027
   0.38680450  0.74149785  0.58915615
   0.61310701  0.73768834  0.60884117
   0.56309565  0.37741374  0.26746659
   0.54264479  0.25444264  0.35243500
   0.46890141  0.36746192  0.73254460
   0.51945712  0.33864488  0.34254937
   0.49504369  0.34607238  0.55044461
   0.48526815  0.52563056  0.65356549
Direct configuration=     7
   0.50756066  0.70911980  0.55054493
   0.50313277  0.58198114  0.54826674
   0.51638465  0.52037271  0.44339276
   0.51168186  0.40061385  0.44530782
   0.48248632  0.41238964  0.64751481
   0.53539701  0.57290592  0.33410136
   0.52501042  0.74510886  0.46103634
   0.38680868  0.74149572  0.58915379
   0.61310363  0.73768619  0.60883829
   0.56309502  0.37741128  0.26748134
   0.54264607  0.25445209  0.35243833
   0.46890353  0.36746751  0.73253374
   0.51945161  0.33865255  0.34254826
   0.49504799  0.34607992  0.55043559
   0.48527067  0.52563718  0.65355259
Direct configuration=     8
   0.50755437  0.70922535  0.55058461
   0.50315665  0.58195490  0.54823736
   0.51641597  0.52034998  0.44330288
   0.51170118  0.40066273  0.44531973
   0.48240884  0.41227609  0.64767556
   0.53542111  0.57298214  0.33407838
   0.52502192  0.74518668  0.46099669
   0.38673430  0.74156273  0.58919841
   0.61315929  0.73775415  0.60889010
   0.56300576  0.37733663  0.26738745
   0.54262744  0.25429370  0.35235795
   0.46886638  0.36739113  0.73268259
   0.51964513  0.33864556  0.34245753
   0.49500156  0.34616811  0.55041369
   0.48526100  0.52558445  0.65356378
Direct configuration=     9
   0.50755152  0.70927304  0.55060254
   0.50316744  0.58194305  0.54822408
   0.51643012  0.52033972  0.44326228
   0.51170991  0.40068482  0.44532510
   0.48237384  0.41222480  0.64774818
   0.53543199  0.57301658  0.33406799
   0.52502711  0.74522184  0.46097877
   0.38670069  0.74159300  0.58921856
   0.61318443  0.73778485  0.60891351
   0.56296544  0.37730291  0.26734503
   0.54261903  0.25422214  0.35232164
   0.46884959  0.36735663  0.73274984
   0.51973255  0.33864241  0.34241654
   0.49498058  0.34620795  0.55040380
   0.48525664  0.52556062  0.65356883
Direct configuration=    10
   0.50754907  0.70929817  0.55060954
   0.50318367  0.58190929  0.54823612
   0.51645886  0.52036230  0.44323973
   0.51175356  0.40067579  0.44528865
   0.48231691  0.41217685  0.64776480
   0.53544138  0.57309403  0.33406092
   0.52502934  0.74531084  0.46099871
   0.38663755  0.74168239  0.58926856
   0.61322892  0.73787841  0.60896799
   0.56287365  0.37721138  0.26719900
   0.54256565  0.25415849  0.35219507
   0.46879489  0.36724622  0.73294132
   0.51996910  0.33853761  0.34247225
   0.49491971  0.34632338  0.55039420
   0.48525864  0.52550922  0.65350984
