   16   16   10    1
  0.6443466E+02  0.7756100E-09  0.1183610E-08  0.1123020E-08  0.2000000E-15
  1.000000000000000E-004
  CAR 
 QM9                                     
     48      1     36
 
  0.0000000E+00  0.0000000E+00  0.0000000E+00  0.1000000E+01
      1        -30.055221   1.000000
      2        -26.086070   1.000000
      3        -20.760015   1.000000
      4        -18.629870   1.000000
      5        -17.662211   1.000000
      6        -16.509518   1.000000
      7        -14.720906   1.000000
      8        -14.171855   1.000000
      9        -13.302273   1.000000
     10        -12.279428   1.000000
     11        -11.330383   1.000000
     12        -10.777902   1.000000
     13        -10.554750   1.000000
     14         -9.622172   1.000000
     15         -9.442908   1.000000
     16         -9.317989   1.000000
     17         -9.180133   1.000000
     18         -9.015635   1.000000
     19         -8.574697   1.000000
     20         -8.050138   1.000000
     21         -7.630630   1.000000
     22         -7.415510   1.000000
     23         -5.393406   1.000000
     24         -4.869262   1.000000
     25         -0.497793   0.000000
     26         -0.328704   0.000000
     27         -0.204745   0.000000
     28          0.332394   0.000000
     29          0.581660   0.000000
     30          0.884497   0.000000
     31          1.124640   0.000000
     32          1.622985   0.000000
     33          1.847000   0.000000
     34          1.925779   0.000000
     35          2.039888   0.000000
     36          2.109638   0.000000
