 vasp.6.4.1 05Apr23 (build Jun 16 2023 21:25:53) gamma-only                     
  
 executed on             LinuxIFC date 2024.07.14  18:49:36
 running    8 mpi-ranks, with    1 threads/rank, on    1 nodes
 distrk:  each k-point on    8 cores,    1 groups
 distr:  one band on NCORE=   2 cores,    4 groups


--------------------------------------------------------------------------------------------------------


 INCAR:
   SYSTEM = QM9
   ISMEAR = 0
   SIGMA = 0.1
   ENCUT = 500
   EDIFF = 1E-5
   NELM = 150
   NELMIN = 6
   NELMDL = -20
   ISIF = 2
   ALGO = V
   LREAL = Auto
   ISYM = 0
   LORBIT = 11
   IBRION = 2
   POTIM = 0.2
   EDIFFG = -0.02
   NSW = 10
   LWAVE = .FALSE.
   LCHARG = .FALSE.
   NPAR = 4

 POTCAR:    PAW_PBE C 08Apr2002                   
 POTCAR:    PAW_PBE F 08Apr2002                   
 POTCAR:    PAW_PBE H 15Jun2001                   
 POTCAR:    PAW_PBE O 08Apr2002                   
 POTCAR:    PAW_PBE C 08Apr2002                   
   SHA256 =  253f7b50bb8d59471dbedb8285d89021f4a42ed1a2c5d38a03a736e69125dd95 C/POTCAR              
   COPYR  = (c) Copyright 08Apr2002 Georg Kresse                                                    
   COPYR  = This file is part of the software VASP. Any use, copying, and all other rights are regul
   COPYR  = If you do not have a valid VASP license, you may not use, copy or distribute this file. 
   VRHFIN =C: s2p2                                                                                  
   LEXCH  = PE                                                                                      
   EATOM  =   147.1560 eV,   10.8157 Ry                                                             
                                                                                                    
   TITEL  = PAW_PBE C 08Apr2002                                                                     
   LULTRA =        F    use ultrasoft PP ?                                                          
   IUNSCR =        1    unscreen: 0-lin 1-nonlin 2-no                                               
   RPACOR =    1.200    partial core radius                                                         
   POMASS =   12.011; ZVAL   =    4.000    mass and valenz                                          
   RCORE  =    1.500    outmost cutoff radius                                                       
   RWIGS  =    1.630; RWIGS  =    0.863    wigner-seitz radius (au A)                               
   ENMAX  =  400.000; ENMIN  =  300.000 eV                                                          
   ICORE  =        2    local potential                                                             
   LCOR   =        T    correct aug charges                                                         
   LPAW   =        T    paw PP                                                                      
   EAUG   =  644.873                                                                                
   DEXC   =    0.000                                                                                
   RMAX   =    1.529    core radius for proj-oper                                                   
   RAUG   =    1.300    factor for augmentation sphere                                              
   RDEP   =    1.501    radius for radial grids                                                     
   RDEPT  =    1.300    core radius for aug-charge                                                  
                                                                                                    
   Atomic configuration                                                                             
    4 entries                                                                                       
     n  l   j            E        occ.                                                              
     1  0  0.50      -273.3789   2.0000                                                             
     2  0  0.50       -13.7508   2.0000                                                             
     2  1  0.50        -5.2854   2.0000                                                             
     3  2  1.50        -5.4423   0.0000                                                             
   Description                                                                                      
     l       E           TYP  RCUT    TYP  RCUT                                                     
     0    -13.7508458     23  1.200                                                                 
     0     -8.2022199     23  1.200                                                                 
     1     -5.2854383     23  1.500                                                                 
     1     34.0145650     23  1.500                                                                 
     2     -5.4423304      7  1.500                                                                 
  local pseudopotential read in
  partial core-charges read in
  partial kinetic energy density read in
  atomic valenz-charges read in
  non local Contribution for L=           0  read in
    real space projection operators read in
  non local Contribution for L=           0  read in
    real space projection operators read in
  non local Contribution for L=           1  read in
    real space projection operators read in
  non local Contribution for L=           1  read in
    real space projection operators read in
    PAW grid and wavefunctions read in
 
   number of l-projection  operators is LMAX  =           4
   number of lm-projection operators is LMMAX =           8
 
 POTCAR:    PAW_PBE F 08Apr2002                   
   SHA256 =  53c630871ac675939349fc2b976745ee17808dedc90b5bdde026bc81f0faf456 F/POTCAR              
   COPYR  = (c) Copyright 08Apr2002 Georg Kresse                                                    
   COPYR  = This file is part of the software VASP. Any use, copying, and all other rights are regul
   COPYR  = If you do not have a valid VASP license, you may not use, copy or distribute this file. 
   VRHFIN =F: s2p5                                                                                  
   LEXCH  = PE                                                                                      
   EATOM  =   659.6475 eV,   48.4827 Ry                                                             
                                                                                                    
   TITEL  = PAW_PBE F 08Apr2002                                                                     
   LULTRA =        F    use ultrasoft PP ?                                                          
   IUNSCR =        1    unscreen: 0-lin 1-nonlin 2-no                                               
   RPACOR =    1.200    partial core radius                                                         
   POMASS =   18.998; ZVAL   =    7.000    mass and valenz                                          
   RCORE  =    1.520    outmost cutoff radius                                                       
   RWIGS  =    1.500; RWIGS  =    0.794    wigner-seitz radius (au A)                               
   ENMAX  =  400.000; ENMIN  =  300.000 eV                                                          
   ICORE  =        2    local potential                                                             
   LCOR   =        T    correct aug charges                                                         
   LPAW   =        T    paw PP                                                                      
   EAUG   =  613.614                                                                                
   RMAX   =    1.555    core radius for proj-oper                                                   
   RAUG   =    1.300    factor for augmentation sphere                                              
   RDEP   =    1.539    radius for radial grids                                                     
   RDEPT  =    1.299    core radius for aug-charge                                                  
                                                                                                    
   Atomic configuration                                                                             
    4 entries                                                                                       
     n  l   j            E        occ.                                                              
     1  0  0.50      -663.3661   2.0000                                                             
     2  0  0.50       -29.8995   2.0000                                                             
     2  1  0.50       -11.1114   5.0000                                                             
     3  2  1.50       -10.8847   0.0000                                                             
   Description                                                                                      
     l       E           TYP  RCUT    TYP  RCUT                                                     
     0    -29.8995018     23  1.200                                                                 
     0     -9.5240782     23  1.200                                                                 
     1    -11.1113914     23  1.520                                                                 
     1      1.3605826     23  1.520                                                                 
     2    -10.8846608      7  1.500                                                                 
  local pseudopotential read in
  partial core-charges read in
  partial kinetic energy density read in
  atomic valenz-charges read in
  non local Contribution for L=           0  read in
    real space projection operators read in
  non local Contribution for L=           0  read in
    real space projection operators read in
  non local Contribution for L=           1  read in
    real space projection operators read in
  non local Contribution for L=           1  read in
    real space projection operators read in
    PAW grid and wavefunctions read in
 
   number of l-projection  operators is LMAX  =           4
   number of lm-projection operators is LMMAX =           8
 
 POTCAR:    PAW_PBE H 15Jun2001                   
   SHA256 =  030f79b5d3ab3cf0e668861823c8fb652ff669f3e15e46930bd03bfd63a607b6 H/POTCAR              
   COPYR  = (c) Copyright 15Jun2001 Georg Kresse                                                    
   COPYR  = This file is part of the software VASP. Any use, copying, and all other rights are regul
   COPYR  = If you do not have a valid VASP license, you may not use, copy or distribute this file. 
   VRHFIN =H: ultrasoft test                                                                        
   LEXCH  = PE                                                                                      
   EATOM  =    12.4884 eV,    0.9179 Ry                                                             
                                                                                                    
   TITEL  = PAW_PBE H 15Jun2001                                                                     
   LULTRA =        F    use ultrasoft PP ?                                                          
   IUNSCR =        0    unscreen: 0-lin 1-nonlin 2-no                                               
   RPACOR =    0.000    partial core radius                                                         
   POMASS =    1.000; ZVAL   =    1.000    mass and valenz                                          
   RCORE  =    1.100    outmost cutoff radius                                                       
   RWIGS  =    0.700; RWIGS  =    0.370    wigner-seitz radius (au A)                               
   ENMAX  =  250.000; ENMIN  =  200.000 eV                                                          
   RCLOC  =    0.701    cutoff for local pot                                                        
   LCOR   =        T    correct aug charges                                                         
   LPAW   =        T    paw PP                                                                      
   EAUG   =  400.000                                                                                
   RMAX   =    1.123    core radius for proj-oper                                                   
   RAUG   =    1.200    factor for augmentation sphere                                              
   RDEP   =    1.112    radius for radial grids                                                     
   RDEPT  =    0.926    core radius for aug-charge                                                  
                                                                                                    
   Atomic configuration                                                                             
    2 entries                                                                                       
     n  l   j            E        occ.                                                              
     1  0  0.50        -6.4927   1.0000                                                             
     2  1  0.50        -3.4015   0.0000                                                             
   Description                                                                                      
     l       E           TYP  RCUT    TYP  RCUT                                                     
     0     -6.4927494     23  1.100                                                                 
     0      6.8029130     23  1.100                                                                 
     1     -4.0817478     23  1.100                                                                 
  local pseudopotential read in
  atomic valenz-charges read in
  non local Contribution for L=           0  read in
    real space projection operators read in
  non local Contribution for L=           0  read in
    real space projection operators read in
  non local Contribution for L=           1  read in
    real space projection operators read in
    PAW grid and wavefunctions read in
 
   number of l-projection  operators is LMAX  =           3
   number of lm-projection operators is LMMAX =           5
 
 POTCAR:    PAW_PBE O 08Apr2002                   
   SHA256 =  818f92134a0a090dccd8ba1447fa70422a3b330e708bb4f08108d8ae51209ddf O/POTCAR              
   COPYR  = (c) Copyright 08Apr2002 Georg Kresse                                                    
   COPYR  = This file is part of the software VASP. Any use, copying, and all other rights are regul
   COPYR  = If you do not have a valid VASP license, you may not use, copy or distribute this file. 
   VRHFIN =O: s2p4                                                                                  
   LEXCH  = PE                                                                                      
   EATOM  =   432.3788 eV,   31.7789 Ry                                                             
                                                                                                    
   TITEL  = PAW_PBE O 08Apr2002                                                                     
   LULTRA =        F    use ultrasoft PP ?                                                          
   IUNSCR =        1    unscreen: 0-lin 1-nonlin 2-no                                               
   RPACOR =    1.200    partial core radius                                                         
   POMASS =   16.000; ZVAL   =    6.000    mass and valenz                                          
   RCORE  =    1.520    outmost cutoff radius                                                       
   RWIGS  =    1.550; RWIGS  =    0.820    wigner-seitz radius (au A)                               
   ENMAX  =  400.000; ENMIN  =  300.000 eV                                                          
   ICORE  =        2    local potential                                                             
   LCOR   =        T    correct aug charges                                                         
   LPAW   =        T    paw PP                                                                      
   EAUG   =  605.392                                                                                
   DEXC   =    0.000                                                                                
   RMAX   =    1.553    core radius for proj-oper                                                   
   RAUG   =    1.300    factor for augmentation sphere                                              
   RDEP   =    1.550    radius for radial grids                                                     
   RDEPT  =    1.329    core radius for aug-charge                                                  
                                                                                                    
   Atomic configuration                                                                             
    4 entries                                                                                       
     n  l   j            E        occ.                                                              
     1  0  0.50      -514.6923   2.0000                                                             
     2  0  0.50       -23.9615   2.0000                                                             
     2  1  0.50        -9.0305   4.0000                                                             
     3  2  1.50        -9.5241   0.0000                                                             
   Description                                                                                      
     l       E           TYP  RCUT    TYP  RCUT                                                     
     0    -23.9615318     23  1.200                                                                 
     0     -9.5240782     23  1.200                                                                 
     1     -9.0304911     23  1.520                                                                 
     1      8.1634956     23  1.520                                                                 
     2     -9.5240782      7  1.500                                                                 
  local pseudopotential read in
  partial core-charges read in
  partial kinetic energy density read in
  kinetic energy density of atom read in
  atomic valenz-charges read in
  non local Contribution for L=           0  read in
    real space projection operators read in
  non local Contribution for L=           0  read in
    real space projection operators read in
  non local Contribution for L=           1  read in
    real space projection operators read in
  non local Contribution for L=           1  read in
    real space projection operators read in
    PAW grid and wavefunctions read in
 
   number of l-projection  operators is LMAX  =           4
   number of lm-projection operators is LMMAX =           8
 
 Optimization of the real space projectors (new method)

 maximal supplied QI-value         = 25.13
 optimisation between [QCUT,QGAM] = [ 11.31, 22.87] = [ 35.82,146.48] Ry 
 Optimized for a Real-space Cutoff    1.00 Angstroem

   l    n(q)    QCUT    max X(q) W(low)/X(q) W(high)/X(q)  e(spline) 
   0      7    11.310   115.676    0.43E-03    0.13E-02    0.19E-06
   0      7    11.310    87.132    0.43E-03    0.13E-02    0.18E-06
   1      6    11.310     4.429    0.42E-03    0.74E-03    0.11E-06
   1      6    11.310     2.733    0.34E-03    0.55E-03    0.92E-07
 Optimization of the real space projectors (new method)

 maximal supplied QI-value         = 24.76
 optimisation between [QCUT,QGAM] = [ 11.39, 22.77] = [ 36.31,145.25] Ry 
 Optimized for a Real-space Cutoff    1.00 Angstroem

   l    n(q)    QCUT    max X(q) W(low)/X(q) W(high)/X(q)  e(spline) 
   0      7    11.387    14.049    0.29E-03    0.95E-03    0.11E-06
   0      7    11.387     8.945    0.38E-03    0.13E-02    0.15E-06
   1      6    11.387     7.086    0.33E-03    0.10E-02    0.16E-06
   1      6    11.387     6.747    0.33E-03    0.86E-03    0.15E-06
 Optimization of the real space projectors (new method)

 maximal supplied QI-value         = 34.20
 optimisation between [QCUT,QGAM] = [ 11.29, 22.57] = [ 35.68,142.71] Ry 
 Optimized for a Real-space Cutoff    1.16 Angstroem

   l    n(q)    QCUT    max X(q) W(low)/X(q) W(high)/X(q)  e(spline) 
   0      8    11.287    19.460    0.40E-03    0.73E-03    0.16E-06
   0      8    11.287    12.209    0.38E-03    0.70E-03    0.15E-06
   1      7    11.287     4.655    0.22E-03    0.25E-04    0.22E-06
 Optimization of the real space projectors (new method)

 maximal supplied QI-value         = 24.76
 optimisation between [QCUT,QGAM] = [ 11.39, 22.77] = [ 36.31,145.25] Ry 
 Optimized for a Real-space Cutoff    1.00 Angstroem

   l    n(q)    QCUT    max X(q) W(low)/X(q) W(high)/X(q)  e(spline) 
   0      7    11.387    20.381    0.39E-03    0.13E-02    0.15E-06
   0      7    11.387    15.268    0.42E-03    0.14E-02    0.17E-06
   1      6    11.387     5.964    0.41E-03    0.11E-02    0.17E-06
   1      6    11.387     5.382    0.39E-03    0.87E-03    0.15E-06
  PAW_PBE C 08Apr2002                   :
 energy of atom  1       EATOM= -147.1560
 kinetic energy error for atom=    0.0076 (will be added to EATOM!!)
  PAW_PBE F 08Apr2002                   :
 energy of atom  2       EATOM= -659.6475
 kinetic energy error for atom=    0.0354 (will be added to EATOM!!)
  PAW_PBE H 15Jun2001                   :
 energy of atom  3       EATOM=  -12.4884
 kinetic energy error for atom=    0.0020 (will be added to EATOM!!)
  PAW_PBE O 08Apr2002                   :
 energy of atom  4       EATOM= -432.3788
 kinetic energy error for atom=    0.0224 (will be added to EATOM!!)
 
 
 POSCAR: Generated POSCAR
  positions in cartesian coordinates
  No initial velocities read in
 exchange correlation table for  LEXCH =        8
   RHO(1)=    0.500       N(1)  =     2000
   RHO(2)=  100.500       N(2)  =     4000

 VTST: version 4.1, (05/19/21)

 CHAIN: initializing optimizer
 
 OPT: Using VASP Conjugate-Gradient optimizer
 CHAIN: Read ICHAIN            0
 
 POSCAR: Generated POSCAR
  positions in cartesian coordinates
  No initial velocities read in
 


--------------------------------------------------------------------------------------------------------


 ion  position               nearest neighbor table
   1  0.498  0.711  0.537-  11 1.09   9 1.10  10 1.10   2 1.51
   2  0.501  0.584  0.542-   3 1.39   7 1.40   1 1.51
   3  0.509  0.521  0.438-   8 1.36   2 1.39   4 1.39
   4  0.513  0.403  0.435-  16 1.36   5 1.39   3 1.39
   5  0.507  0.345  0.543-  13 1.08   6 1.39   4 1.39
   6  0.498  0.405  0.649-  14 1.08   5 1.39   7 1.39
   7  0.495  0.523  0.649-  15 1.08   6 1.39   2 1.40
   8  0.515  0.575  0.331-   3 1.36
   9  0.613  0.744  0.494-   1 1.10
  10  0.387  0.742  0.487-   1 1.10
  11  0.491  0.747  0.627-   1 1.09
  12  0.524  0.402  0.267-  16 0.97
  13  0.509  0.253  0.541-   5 1.08
  14  0.493  0.360  0.733-   6 1.08
  15  0.488  0.569  0.733-   7 1.08
  16  0.521  0.346  0.330-  12 0.97   4 1.36
 

IMPORTANT INFORMATION: All symmetrisations will be switched off!
NOSYMM: (Re-)initialisation of all symmetry stuff for point group C_1.


----------------------------------------------------------------------------------------

                                     Primitive cell                                     

  volume of cell :    1030.9545

  direct lattice vectors                    reciprocal lattice vectors
     7.756100000  0.000000000  0.000000000     0.128930777  0.000000000  0.000000000
     0.000000000 11.836100000  0.000000000     0.000000000  0.084487289  0.000000000
     0.000000000  0.000000000 11.230200000     0.000000000  0.000000000  0.089045609

  length of vectors
     7.756100000 11.836100000 11.230200000     0.128930777  0.084487289  0.089045609

  position of ions in fractional coordinates (direct lattice)
     0.497659906  0.710833805  0.537416965
     0.500638207  0.583663538  0.542350092
     0.509392607  0.521134495  0.438024256
     0.512628770  0.403418356  0.435370697
     0.506788205  0.344986947  0.542902174
     0.497969340  0.405319320  0.649080159
     0.494900788  0.522993216  0.649106873
     0.515297637  0.574665642  0.331409948
     0.613207669  0.744248528  0.493802426
     0.386792331  0.741722358  0.486536304
     0.490710538  0.746538133  0.626970134
     0.524180967  0.401568084  0.267136827
     0.509276569  0.253461867  0.541263735
     0.493418084  0.359839812  0.732863173
     0.488002991  0.568954301  0.732542608
     0.521292918  0.346473923  0.330457160

  ion indices of the primitive-cell ions
   primitive index   ion index
                 1           1
                 2           2
                 3           3
                 4           4
                 5           5
                 6           6
                 7           7
                 8           8
                 9           9
                10          10
                11          11
                12          12
                13          13
                14          14
                15          15
                16          16

----------------------------------------------------------------------------------------

 
 
 KPOINTS: K-Spacing Value to Generate K-Mesh: 0.00

Automatic generation of k-mesh.
 Grid dimensions read from file:
 generate k-points for:    1    1    1

 Generating k-lattice:

  Cartesian coordinates                     Fractional coordinates (reciprocal lattice)
     0.128930777  0.000000000  0.000000000     1.000000000  0.000000000  0.000000000
     0.000000000  0.084487289  0.000000000     0.000000000  1.000000000  0.000000000
     0.000000000  0.000000000  0.089045609     0.000000000  0.000000000  1.000000000

  Length of vectors
     0.128930777  0.084487289  0.089045609

  Shift w.r.t. Gamma in fractional coordinates (k-lattice)
     0.000000000  0.000000000  0.000000000

 
 Subroutine IBZKPT returns following result:
 ===========================================
 
 Found      1 irreducible k-points:
 
 Following reciprocal coordinates:
            Coordinates               Weight
  0.000000  0.000000  0.000000      1.000000
 
 Following cartesian coordinates:
            Coordinates               Weight
  0.000000  0.000000  0.000000      1.000000
 


--------------------------------------------------------------------------------------------------------




 Dimension of arrays:
   k-points           NKPTS =      1   k-points in BZ     NKDIM =      1   number of bands    NBANDS=     36
   number of dos      NEDOS =    301   number of ions     NIONS =     16
   non local maximal  LDIM  =      4   non local SUM 2l+1 LMDIM =      8
   total plane-waves  NPLWV = 188160
   max r-space proj   IRMAX =   1255   max aug-charges    IRDMAX=   2567
   dimension x,y,z NGX =    42 NGY =   70 NGZ =   64
   dimension x,y,z NGXF=    84 NGYF=  140 NGZF=  128
   support grid    NGXF=    84 NGYF=  140 NGZF=  128
   ions per type =               7   1   7   1
   NGX,Y,Z   is equivalent  to a cutoff of   9.00,  9.83,  9.47 a.u.
   NGXF,Y,Z  is equivalent  to a cutoff of  18.00, 19.66, 18.95 a.u.

 SYSTEM =  QM9                                     
 POSCAR =  Generated POSCAR                        

 Startparameter for this run:
   NWRITE =      2    write-flag & timer
   PREC   = normal    normal or accurate (medium, high low for compatibility)
   ISTART =      0    job   : 0-new  1-cont  2-samecut
   ICHARG =      2    charge: 1-file 2-atom 10-const
   ISPIN  =      1    spin polarized calculation?
   LNONCOLLINEAR =      F non collinear calculations
   LSORBIT =      F    spin-orbit coupling
   INIWAV =      1    electr: 0-lowe 1-rand  2-diag
   LASPH  =      F    aspherical Exc in radial PAW
 Electronic Relaxation 1
   ENCUT  =  500.0 eV  36.75 Ry    6.06 a.u.  14.14 21.58 20.48*2*pi/ulx,y,z
   ENINI  =  500.0     initial cutoff
   ENAUG  =  644.9 eV  augmentation charge cutoff
   NELM   =    150;   NELMIN=  6; NELMDL=-20     # of ELM steps 
   EDIFF  = 0.1E-04   stopping-criterion for ELM
   LREAL  =      T    real-space projection
   NLSPLINE    = F    spline interpolate recip. space projectors
   LCOMPAT=      F    compatible to vasp.4.4
   GGA_COMPAT  = T    GGA compatible to vasp.4.4-vasp.4.6
   LMAXPAW     = -100 max onsite density
   LMAXMIX     =    2 max onsite mixed and CHGCAR
   VOSKOWN=      0    Vosko Wilk Nusair interpolation
   ROPT   =   -0.00050  -0.00050  -0.00050  -0.00050
 Ionic relaxation
   EDIFFG = -.2E-01   stopping-criterion for IOM
   NSW    =     10    number of steps for IOM
   NBLOCK =      1;   KBLOCK =     10    inner block; outer block 
   IBRION =      2    ionic relax: 0-MD 1-quasi-New 2-CG
   NFREE  =      1    steps in history (QN), initial steepest desc. (CG)
   ISIF   =      2    stress and relaxation
   IWAVPR =     11    prediction:  0-non 1-charg 2-wave 3-comb
   ISYM   =      0    0-nonsym 1-usesym 2-fastsym
   LCORR  =      T    Harris-Foulkes like correction to forces

   POTIM  = 0.2000    time-step for ionic-motion
   TEIN   =    0.0    initial temperature
   TEBEG  =    0.0;   TEEND  =   0.0 temperature during run
   SMASS  =  -3.00    Nose mass-parameter (am)
   estimated Nose-frequenzy (Omega)   =  0.10E-29 period in steps = 0.31E+47 mass=  -0.137E-26a.u.
   SCALEE = 1.0000    scale energy and forces
   NPACO  =    256;   APACO  = 10.0  distance and # of slots for P.C.
   PSTRESS=    0.0 pullay stress

  Mass of Ions in am
   POMASS =  12.01 19.00  1.00 16.00
  Ionic Valenz
   ZVAL   =   4.00  7.00  1.00  6.00
  Atomic Wigner-Seitz radii
   RWIGS  =  -1.00 -1.00 -1.00 -1.00
  virtual crystal weights 
   VCA    =   1.00  1.00  1.00  1.00
   NELECT =      48.0000    total number of electrons
   NUPDOWN=      -1.0000    fix difference up-down

 DOS related values:
   EMIN   =  10.00;   EMAX   =-10.00  energy-range for DOS
   EFERMI =   0.00;   METHOD = LEGACY      
   ISMEAR =     0;   SIGMA  =   0.10  broadening in eV -4-tet -1-fermi 0-gaus

 Electronic relaxation 2 (details)
   IALGO  =     48    algorithm
   LDIAG  =      T    sub-space diagonalisation (order eigenvalues)
   LSUBROT=      F    optimize rotation matrix (better conditioning)
   TURBO    =      0    0=normal 1=particle mesh
   IRESTART =      0    0=no restart 2=restart with 2 vectors
   NREBOOT  =      0    no. of reboots
   NMIN     =      0    reboot dimension
   EREF     =   0.00    reference energy to select bands
   IMIX   =      4    mixing-type and parameters
     AMIX     =   0.40;   BMIX     =  1.00
     AMIX_MAG =   1.60;   BMIX_MAG =  1.00
     AMIN     =   0.10
     WC   =   100.;   INIMIX=   1;  MIXPRE=   1;  MAXMIX= -45

 Intra band minimization:
   WEIMIN = 0.0010     energy-eigenvalue tresh-hold
   EBREAK =  0.69E-07  absolut break condition
   DEPER  =   0.30     relativ break condition  

   TIME   =   0.40     timestep for ELM

  volume/ion in A,a.u.               =      64.43       434.83
  Fermi-wavevector in a.u.,A,eV,Ry     =   0.588946  1.112946  4.719280  0.346857
  Thomas-Fermi vector in A             =   1.636408
 
 Write flags
   LWAVE        =      F    write WAVECAR
   LDOWNSAMPLE  =      F    k-point downsampling of WAVECAR
   LCHARG       =      F    write CHGCAR
   LVTOT        =      F    write LOCPOT, total local potential
   LVHAR        =      F    write LOCPOT, Hartree potential only
   LELF         =      F    write electronic localiz. function (ELF)
   LORBIT       =     11    0 simple, 1 ext, 2 COOP (PROOUT), +10 PAW based schemes


 Dipole corrections
   LMONO  =      F    monopole corrections only (constant potential shift)
   LDIPOL =      F    correct potential (dipole corrections)
   IDIPOL =      0    1-x, 2-y, 3-z, 4-all directions 
   EPSILON=  1.0000000 bulk dielectric constant

 Exchange correlation treatment:
   GGA     =    --    GGA type
   LEXCH   =     8    internal setting for exchange type
   LIBXC   =     F    Libxc                    
   VOSKOWN =     0    Vosko Wilk Nusair interpolation
   LHFCALC =     F    Hartree Fock is set to
   LHFONE  =     F    Hartree Fock one center treatment
   AEXX    =    0.0000 exact exchange contribution

 Linear response parameters
   LEPSILON=     F    determine dielectric tensor
   LRPA    =     F    only Hartree local field effects (RPA)
   LNABLA  =     F    use nabla operator in PAW spheres
   LVEL    =     F    velocity operator in full k-point grid
   CSHIFT  =0.1000    complex shift for real part using Kramers Kronig
   OMEGAMAX=  -1.0    maximum frequency
   DEG_THRESHOLD= 0.2000000E-02 threshold for treating states as degnerate
   RTIME   =   -0.100 relaxation time in fs
  (WPLASMAI=    0.000 imaginary part of plasma frequency in eV, 0.658/RTIME)
   DFIELD  = 0.0000000 0.0000000 0.0000000 field for delta impulse in time
 
  Optional k-point grid parameters
   LKPOINTS_OPT  =     F    use optional k-point grid
   KPOINTS_OPT_MODE=     1    mode for optional k-point grid
 
 Orbital magnetization related:
   ORBITALMAG=     F  switch on orbital magnetization
   LCHIMAG   =     F  perturbation theory with respect to B field
   DQ        =  0.001000  dq finite difference perturbation B field
   LLRAUG    =     F  two centre corrections for induced B field
   LBONE     =     F  B-component reconstruction in AE one-centre
   LVGVCALC  =     T  calculate vGv susceptibility
   LVGVAPPL  =     F  apply vGv susceptibility instead of pGv for G=0

 Random number generation:
   RANDOM_GENERATOR = DEFAULT
   PCG_SEED         = not used


--------------------------------------------------------------------------------------------------------


 conjugate gradient relaxation of ions
 charge density and potential will be updated during run
 non-spin polarized calculation
 RMM-DIIS sequential band-by-band
 perform sub-space diagonalisation
    before iterative eigenvector-optimisation
 modified Broyden-mixing scheme, WC =      100.0
 initial mixing is a Kerker type mixing with AMIX =  0.4000 and BMIX =      1.0000
 Hartree-type preconditioning will be used
 using additional bands           12
 real space projection scheme for non local part
 use partial core corrections
 calculate Harris-corrections to forces 
   (improved forces if not selfconsistent)
 use gradient corrections 
 use of overlap-Matrix (Vanderbilt PP)
 Gauss-broadening in eV      SIGMA  =   0.10


--------------------------------------------------------------------------------------------------------


  energy-cutoff  :      500.00
  volume of cell :     1030.95
      direct lattice vectors                 reciprocal lattice vectors
     7.756100000  0.000000000  0.000000000     0.128930777  0.000000000  0.000000000
     0.000000000 11.836100000  0.000000000     0.000000000  0.084487289  0.000000000
     0.000000000  0.000000000 11.230200000     0.000000000  0.000000000  0.089045609

  length of vectors
     7.756100000 11.836100000 11.230200000     0.128930777  0.084487289  0.089045609


 
 k-points in units of 2pi/SCALE and weight: K-Spacing Value to Generate K-Mesh: 0.00
   0.00000000  0.00000000  0.00000000       1.000
 
 k-points in reciprocal lattice and weights: K-Spacing Value to Generate K-Mesh: 0.00
   0.00000000  0.00000000  0.00000000       1.000
 
 position of ions in fractional coordinates (direct lattice) 
   0.49765991  0.71083381  0.53741696
   0.50063821  0.58366354  0.54235009
   0.50939261  0.52113450  0.43802426
   0.51262877  0.40341836  0.43537070
   0.50678821  0.34498695  0.54290217
   0.49796934  0.40531932  0.64908016
   0.49490079  0.52299322  0.64910687
   0.51529764  0.57466564  0.33140995
   0.61320767  0.74424853  0.49380243
   0.38679233  0.74172236  0.48653630
   0.49071054  0.74653813  0.62697013
   0.52418097  0.40156808  0.26713683
   0.50927657  0.25346187  0.54126374
   0.49341808  0.35983981  0.73286317
   0.48800299  0.56895430  0.73254261
   0.52129292  0.34647392  0.33045716
 
 position of ions in cartesian coordinates  (Angst):
   3.85990000  8.41350000  6.03530000
   3.88300000  6.90830000  6.09070000
   3.95090000  6.16820000  4.91910000
   3.97600000  4.77490000  4.88930000
   3.93070000  4.08330000  6.09690000
   3.86230000  4.79740000  7.28930000
   3.83850000  6.19020000  7.28960000
   3.99670000  6.80180000  3.72180000
   4.75610000  8.80900000  5.54550000
   3.00000000  8.77910000  5.46390000
   3.80600000  8.83610000  7.04100000
   4.06560000  4.75300000  3.00000000
   3.95000000  3.00000000  6.07850000
   3.82700000  4.25910000  8.23020000
   3.78500000  6.73420000  8.22660000
   4.04320000  4.10090000  3.71110000
 


--------------------------------------------------------------------------------------------------------


 use parallel FFT for orbitals z direction half grid
 k-point   1 :   0.0000 0.0000 0.0000  plane waves:   13068

 maximum and minimum number of plane-waves per node :      6538     6530

 maximum number of plane-waves:     13068
 maximum index in each direction: 
   IXMAX=   14   IYMAX=   21   IZMAX=   20
   IXMIN=  -14   IYMIN=  -21   IZMIN=    0


 real space projection operators:
  total allocation   :        742.95 KBytes
  max/ min on nodes  :        372.21        370.73


 parallel 3D FFT for wavefunctions:
    minimum data exchange during FFTs selected (reduces bandwidth)
 parallel 3D FFT for charge:
    minimum data exchange during FFTs selected (reduces bandwidth)


 total amount of memory used by VASP MPI-rank0    58246. kBytes
=======================================================================

   base      :      30000. kBytes
   nonlr-proj:        455. kBytes
   fftplans  :       8683. kBytes
   grid      :      18151. kBytes
   one-center:         12. kBytes
   wavefun   :        945. kBytes
 
     INWAV:  cpu time      0.0000: real time      0.0000
 Broyden mixing: mesh for mixing (old mesh)
   NGX = 29   NGY = 43   NGZ = 41
  (NGX  = 84   NGY  =140   NGZ  =128)
  gives a total of  51127 points

 initial charge density was supplied:
 charge density of overlapping atoms calculated
 number of electron      48.0000000 magnetization 
 keeping initial charge density in first step


--------------------------------------------------------------------------------------------------------


 Maximum index for non-local projection operator          592
 Maximum index for augmentation-charges          326 (set IRDMAX)


--------------------------------------------------------------------------------------------------------


 First call to EWALD:  gamma=   0.175
 Maximum number of real-space cells 3x 2x 3
 Maximum number of reciprocal cells 2x 3x 3

    FEWALD:  cpu time      0.0013: real time      0.0013


--------------------------------------- Ionic step        1  -------------------------------------------




--------------------------------------- Iteration      1(   1)  ---------------------------------------


    POTLOK:  cpu time      0.1970: real time      0.2232
    SETDIJ:  cpu time      0.0029: real time      0.0184
    EDDIAG:  cpu time      0.1438: real time      0.3554
  RMM-DIIS:  cpu time      0.1918: real time      0.1944
    ORTHCH:  cpu time      0.0031: real time      0.0031
       DOS:  cpu time      0.0002: real time      0.0002
    --------------------------------------------
      LOOP:  cpu time      0.5388: real time      0.7948

 eigenvalue-minimisations  :    36
 total energy-change (2. order) : 0.8018960E+03  (-0.1081959E+04)
 number of electron      48.0000000 magnetization 
 augmentation part       48.0000000 magnetization 

 Free energy of the ion-electron system (eV)
  ---------------------------------------------------
  alpha Z        PSCENC =         9.73354436
  Ewald energy   TEWEN  =      1865.82284762
  -Hartree energ DENC   =     -3547.56209190
  -exchange      EXHF   =         0.00000000
  -V(xc)+E(xc)   XCENC  =       172.61125320
  PAW double counting   =      1660.34980416    -1671.29803938
  entropy T*S    EENTRO =        -0.03854577
  eigenvalues    EBANDS =       102.86475077
  atomic energy  EATOM  =      2209.41246822
  Solvation  Ediel_sol  =         0.00000000
  ---------------------------------------------------
  free energy    TOTEN  =       801.89599127 eV

  energy without entropy =      801.93453704  energy(sigma->0) =      801.91526415


--------------------------------------------------------------------------------------------------------




--------------------------------------- Iteration      1(   2)  ---------------------------------------


    EDDIAG:  cpu time      0.0926: real time      0.0968
  RMM-DIIS:  cpu time      0.2025: real time      0.2054
    ORTHCH:  cpu time      0.0039: real time      0.0040
       DOS:  cpu time      0.0005: real time      0.0005
    --------------------------------------------
      LOOP:  cpu time      0.2995: real time      0.3067

 eigenvalue-minimisations  :    36
 total energy-change (2. order) :-0.3700979E+03  (-0.4304504E+03)
 number of electron      48.0000000 magnetization 
 augmentation part       48.0000000 magnetization 

 Free energy of the ion-electron system (eV)
  ---------------------------------------------------
  alpha Z        PSCENC =         9.73354436
  Ewald energy   TEWEN  =      1865.82284762
  -Hartree energ DENC   =     -3547.56209190
  -exchange      EXHF   =         0.00000000
  -V(xc)+E(xc)   XCENC  =       172.61125320
  PAW double counting   =      1660.34980416    -1671.29803938
  entropy T*S    EENTRO =        -0.09450646
  eigenvalues    EBANDS =      -267.17717068
  atomic energy  EATOM  =      2209.41246822
  Solvation  Ediel_sol  =         0.00000000
  ---------------------------------------------------
  free energy    TOTEN  =       431.79810913 eV

  energy without entropy =      431.89261559  energy(sigma->0) =      431.84536236


--------------------------------------------------------------------------------------------------------




--------------------------------------- Iteration      1(   3)  ---------------------------------------


    EDDIAG:  cpu time      0.0788: real time      0.0803
  RMM-DIIS:  cpu time      0.1865: real time      0.1890
    ORTHCH:  cpu time      0.0029: real time      0.0029
       DOS:  cpu time      0.0002: real time      0.0002
    --------------------------------------------
      LOOP:  cpu time      0.2684: real time      0.2724

 eigenvalue-minimisations  :    36
 total energy-change (2. order) :-0.1754699E+03  (-0.2761265E+03)
 number of electron      48.0000000 magnetization 
 augmentation part       48.0000000 magnetization 

 Free energy of the ion-electron system (eV)
  ---------------------------------------------------
  alpha Z        PSCENC =         9.73354436
  Ewald energy   TEWEN  =      1865.82284762
  -Hartree energ DENC   =     -3547.56209190
  -exchange      EXHF   =         0.00000000
  -V(xc)+E(xc)   XCENC  =       172.61125320
  PAW double counting   =      1660.34980416    -1671.29803938
  entropy T*S    EENTRO =        -0.12974108
  eigenvalues    EBANDS =      -442.61184116
  atomic energy  EATOM  =      2209.41246822
  Solvation  Ediel_sol  =         0.00000000
  ---------------------------------------------------
  free energy    TOTEN  =       256.32820403 eV

  energy without entropy =      256.45794511  energy(sigma->0) =      256.39307457


--------------------------------------------------------------------------------------------------------




--------------------------------------- Iteration      1(   4)  ---------------------------------------


    EDDIAG:  cpu time      0.0892: real time      0.0906
  RMM-DIIS:  cpu time      0.1853: real time      0.1879
    ORTHCH:  cpu time      0.0054: real time      0.0054
       DOS:  cpu time      0.0003: real time      0.0003
    --------------------------------------------
      LOOP:  cpu time      0.2802: real time      0.2843

 eigenvalue-minimisations  :    36
 total energy-change (2. order) :-0.1703873E+03  (-0.1874579E+03)
 number of electron      48.0000000 magnetization 
 augmentation part       48.0000000 magnetization 

 Free energy of the ion-electron system (eV)
  ---------------------------------------------------
  alpha Z        PSCENC =         9.73354436
  Ewald energy   TEWEN  =      1865.82284762
  -Hartree energ DENC   =     -3547.56209190
  -exchange      EXHF   =         0.00000000
  -V(xc)+E(xc)   XCENC  =       172.61125320
  PAW double counting   =      1660.34980416    -1671.29803938
  entropy T*S    EENTRO =        -0.08977807
  eigenvalues    EBANDS =      -613.03913885
  atomic energy  EATOM  =      2209.41246822
  Solvation  Ediel_sol  =         0.00000000
  ---------------------------------------------------
  free energy    TOTEN  =        85.94086935 eV

  energy without entropy =       86.03064742  energy(sigma->0) =       85.98575839


--------------------------------------------------------------------------------------------------------




--------------------------------------- Iteration      1(   5)  ---------------------------------------


    EDDIAG:  cpu time      0.0898: real time      0.0915
  RMM-DIIS:  cpu time      0.1887: real time      0.1915
    ORTHCH:  cpu time      0.0053: real time      0.0054
       DOS:  cpu time      0.0005: real time      0.0005
    --------------------------------------------
      LOOP:  cpu time      0.2844: real time      0.2889

 eigenvalue-minimisations  :    36
 total energy-change (2. order) :-0.1047613E+03  (-0.9607082E+02)
 number of electron      48.0000000 magnetization 
 augmentation part       48.0000000 magnetization 

 Free energy of the ion-electron system (eV)
  ---------------------------------------------------
  alpha Z        PSCENC =         9.73354436
  Ewald energy   TEWEN  =      1865.82284762
  -Hartree energ DENC   =     -3547.56209190
  -exchange      EXHF   =         0.00000000
  -V(xc)+E(xc)   XCENC  =       172.61125320
  PAW double counting   =      1660.34980416    -1671.29803938
  entropy T*S    EENTRO =        -0.10549158
  eigenvalues    EBANDS =      -717.78473391
  atomic energy  EATOM  =      2209.41246822
  Solvation  Ediel_sol  =         0.00000000
  ---------------------------------------------------
  free energy    TOTEN  =       -18.82043922 eV

  energy without entropy =      -18.71494764  energy(sigma->0) =      -18.76769343


--------------------------------------------------------------------------------------------------------




--------------------------------------- Iteration      1(   6)  ---------------------------------------


    EDDIAG:  cpu time      0.0923: real time      0.0941
  RMM-DIIS:  cpu time      0.1844: real time      0.1870
    ORTHCH:  cpu time      0.0049: real time      0.0049
       DOS:  cpu time      0.0004: real time      0.0004
    --------------------------------------------
      LOOP:  cpu time      0.2821: real time      0.2864

 eigenvalue-minimisations  :    36
 total energy-change (2. order) :-0.5427686E+02  (-0.4830388E+02)
 number of electron      48.0000000 magnetization 
 augmentation part       48.0000000 magnetization 

 Free energy of the ion-electron system (eV)
  ---------------------------------------------------
  alpha Z        PSCENC =         9.73354436
  Ewald energy   TEWEN  =      1865.82284762
  -Hartree energ DENC   =     -3547.56209190
  -exchange      EXHF   =         0.00000000
  -V(xc)+E(xc)   XCENC  =       172.61125320
  PAW double counting   =      1660.34980416    -1671.29803938
  entropy T*S    EENTRO =        -0.00228074
  eigenvalues    EBANDS =      -772.16480380
  atomic energy  EATOM  =      2209.41246822
  Solvation  Ediel_sol  =         0.00000000
  ---------------------------------------------------
  free energy    TOTEN  =       -73.09729827 eV

  energy without entropy =      -73.09501753  energy(sigma->0) =      -73.09615790


--------------------------------------------------------------------------------------------------------




--------------------------------------- Iteration      1(   7)  ---------------------------------------


    EDDIAG:  cpu time      0.0884: real time      0.0901
  RMM-DIIS:  cpu time      0.1881: real time      0.1907
    ORTHCH:  cpu time      0.0063: real time      0.0063
       DOS:  cpu time      0.0003: real time      0.0003
    --------------------------------------------
      LOOP:  cpu time      0.2830: real time      0.2874

 eigenvalue-minimisations  :    36
 total energy-change (2. order) :-0.2732638E+02  (-0.2224400E+02)
 number of electron      48.0000000 magnetization 
 augmentation part       48.0000000 magnetization 

 Free energy of the ion-electron system (eV)
  ---------------------------------------------------
  alpha Z        PSCENC =         9.73354436
  Ewald energy   TEWEN  =      1865.82284762
  -Hartree energ DENC   =     -3547.56209190
  -exchange      EXHF   =         0.00000000
  -V(xc)+E(xc)   XCENC  =       172.61125320
  PAW double counting   =      1660.34980416    -1671.29803938
  entropy T*S    EENTRO =        -0.00000000
  eigenvalues    EBANDS =      -799.49346118
  atomic energy  EATOM  =      2209.41246822
  Solvation  Ediel_sol  =         0.00000000
  ---------------------------------------------------
  free energy    TOTEN  =      -100.42367491 eV

  energy without entropy =     -100.42367491  energy(sigma->0) =     -100.42367491


--------------------------------------------------------------------------------------------------------




--------------------------------------- Iteration      1(   8)  ---------------------------------------


    EDDIAG:  cpu time      0.0847: real time      0.0862
  RMM-DIIS:  cpu time      0.1926: real time      0.1953
    ORTHCH:  cpu time      0.0047: real time      0.0048
       DOS:  cpu time      0.0003: real time      0.0003
    --------------------------------------------
      LOOP:  cpu time      0.2824: real time      0.2866

 eigenvalue-minimisations  :    36
 total energy-change (2. order) :-0.6461415E+01  (-0.6081389E+01)
 number of electron      48.0000000 magnetization 
 augmentation part       48.0000000 magnetization 

 Free energy of the ion-electron system (eV)
  ---------------------------------------------------
  alpha Z        PSCENC =         9.73354436
  Ewald energy   TEWEN  =      1865.82284762
  -Hartree energ DENC   =     -3547.56209190
  -exchange      EXHF   =         0.00000000
  -V(xc)+E(xc)   XCENC  =       172.61125320
  PAW double counting   =      1660.34980416    -1671.29803938
  entropy T*S    EENTRO =        -0.00000000
  eigenvalues    EBANDS =      -805.95487599
  atomic energy  EATOM  =      2209.41246822
  Solvation  Ediel_sol  =         0.00000000
  ---------------------------------------------------
  free energy    TOTEN  =      -106.88508972 eV

  energy without entropy =     -106.88508972  energy(sigma->0) =     -106.88508972


--------------------------------------------------------------------------------------------------------




--------------------------------------- Iteration      1(   9)  ---------------------------------------


    EDDIAG:  cpu time      0.0868: real time      0.0885
  RMM-DIIS:  cpu time      0.1890: real time      0.1919
    ORTHCH:  cpu time      0.0039: real time      0.0424
       DOS:  cpu time      0.0001: real time      0.0002
    --------------------------------------------
      LOOP:  cpu time      0.2799: real time      0.3230

 eigenvalue-minimisations  :    36
 total energy-change (2. order) :-0.1727325E+01  (-0.1648815E+01)
 number of electron      48.0000000 magnetization 
 augmentation part       48.0000000 magnetization 

 Free energy of the ion-electron system (eV)
  ---------------------------------------------------
  alpha Z        PSCENC =         9.73354436
  Ewald energy   TEWEN  =      1865.82284762
  -Hartree energ DENC   =     -3547.56209190
  -exchange      EXHF   =         0.00000000
  -V(xc)+E(xc)   XCENC  =       172.61125320
  PAW double counting   =      1660.34980416    -1671.29803938
  entropy T*S    EENTRO =        -0.00000000
  eigenvalues    EBANDS =      -807.68220061
  atomic energy  EATOM  =      2209.41246822
  Solvation  Ediel_sol  =         0.00000000
  ---------------------------------------------------
  free energy    TOTEN  =      -108.61241434 eV

  energy without entropy =     -108.61241434  energy(sigma->0) =     -108.61241434


--------------------------------------------------------------------------------------------------------




--------------------------------------- Iteration      1(  10)  ---------------------------------------


    EDDIAG:  cpu time      0.0808: real time      0.0827
  RMM-DIIS:  cpu time      0.1958: real time      0.1986
    ORTHCH:  cpu time      0.0047: real time      0.0048
       DOS:  cpu time      0.0002: real time      0.0002
    --------------------------------------------
      LOOP:  cpu time      0.2815: real time      0.2863

 eigenvalue-minimisations  :    36
 total energy-change (2. order) :-0.5669792E+00  (-0.5253217E+00)
 number of electron      48.0000000 magnetization 
 augmentation part       48.0000000 magnetization 

 Free energy of the ion-electron system (eV)
  ---------------------------------------------------
  alpha Z        PSCENC =         9.73354436
  Ewald energy   TEWEN  =      1865.82284762
  -Hartree energ DENC   =     -3547.56209190
  -exchange      EXHF   =         0.00000000
  -V(xc)+E(xc)   XCENC  =       172.61125320
  PAW double counting   =      1660.34980416    -1671.29803938
  entropy T*S    EENTRO =        -0.00000000
  eigenvalues    EBANDS =      -808.24917981
  atomic energy  EATOM  =      2209.41246822
  Solvation  Ediel_sol  =         0.00000000
  ---------------------------------------------------
  free energy    TOTEN  =      -109.17939354 eV

  energy without entropy =     -109.17939354  energy(sigma->0) =     -109.17939354


--------------------------------------------------------------------------------------------------------




--------------------------------------- Iteration      1(  11)  ---------------------------------------


    EDDIAG:  cpu time      0.0815: real time      0.0832
  RMM-DIIS:  cpu time      0.1934: real time      0.1962
    ORTHCH:  cpu time      0.0044: real time      0.0045
       DOS:  cpu time      0.0002: real time      0.0002
    --------------------------------------------
      LOOP:  cpu time      0.2795: real time      0.2840

 eigenvalue-minimisations  :    36
 total energy-change (2. order) :-0.1859860E+00  (-0.1798816E+00)
 number of electron      48.0000000 magnetization 
 augmentation part       48.0000000 magnetization 

 Free energy of the ion-electron system (eV)
  ---------------------------------------------------
  alpha Z        PSCENC =         9.73354436
  Ewald energy   TEWEN  =      1865.82284762
  -Hartree energ DENC   =     -3547.56209190
  -exchange      EXHF   =         0.00000000
  -V(xc)+E(xc)   XCENC  =       172.61125320
  PAW double counting   =      1660.34980416    -1671.29803938
  entropy T*S    EENTRO =        -0.00000000
  eigenvalues    EBANDS =      -808.43516580
  atomic energy  EATOM  =      2209.41246822
  Solvation  Ediel_sol  =         0.00000000
  ---------------------------------------------------
  free energy    TOTEN  =      -109.36537953 eV

  energy without entropy =     -109.36537953  energy(sigma->0) =     -109.36537953


--------------------------------------------------------------------------------------------------------




--------------------------------------- Iteration      1(  12)  ---------------------------------------


    EDDIAG:  cpu time      0.0819: real time      0.0834
  RMM-DIIS:  cpu time      0.1888: real time      0.1915
    ORTHCH:  cpu time      0.0032: real time      0.0033
       DOS:  cpu time      0.0002: real time      0.0002
    --------------------------------------------
      LOOP:  cpu time      0.2742: real time      0.2784

 eigenvalue-minimisations  :    36
 total energy-change (2. order) :-0.6767799E-01  (-0.6474477E-01)
 number of electron      48.0000000 magnetization 
 augmentation part       48.0000000 magnetization 

 Free energy of the ion-electron system (eV)
  ---------------------------------------------------
  alpha Z        PSCENC =         9.73354436
  Ewald energy   TEWEN  =      1865.82284762
  -Hartree energ DENC   =     -3547.56209190
  -exchange      EXHF   =         0.00000000
  -V(xc)+E(xc)   XCENC  =       172.61125320
  PAW double counting   =      1660.34980416    -1671.29803938
  entropy T*S    EENTRO =        -0.00000000
  eigenvalues    EBANDS =      -808.50284379
  atomic energy  EATOM  =      2209.41246822
  Solvation  Ediel_sol  =         0.00000000
  ---------------------------------------------------
  free energy    TOTEN  =      -109.43305752 eV

  energy without entropy =     -109.43305752  energy(sigma->0) =     -109.43305752


--------------------------------------------------------------------------------------------------------




--------------------------------------- Iteration      1(  13)  ---------------------------------------


    EDDIAG:  cpu time      0.0922: real time      0.0939
  RMM-DIIS:  cpu time      0.1871: real time      0.1897
    ORTHCH:  cpu time      0.0049: real time      0.0050
       DOS:  cpu time      0.0003: real time      0.0003
    --------------------------------------------
      LOOP:  cpu time      0.2846: real time      0.2889

 eigenvalue-minimisations  :    36
 total energy-change (2. order) :-0.2476959E-01  (-0.2436139E-01)
 number of electron      48.0000000 magnetization 
 augmentation part       48.0000000 magnetization 

 Free energy of the ion-electron system (eV)
  ---------------------------------------------------
  alpha Z        PSCENC =         9.73354436
  Ewald energy   TEWEN  =      1865.82284762
  -Hartree energ DENC   =     -3547.56209190
  -exchange      EXHF   =         0.00000000
  -V(xc)+E(xc)   XCENC  =       172.61125320
  PAW double counting   =      1660.34980416    -1671.29803938
  entropy T*S    EENTRO =        -0.00000000
  eigenvalues    EBANDS =      -808.52761337
  atomic energy  EATOM  =      2209.41246822
  Solvation  Ediel_sol  =         0.00000000
  ---------------------------------------------------
  free energy    TOTEN  =      -109.45782710 eV

  energy without entropy =     -109.45782710  energy(sigma->0) =     -109.45782710


--------------------------------------------------------------------------------------------------------




--------------------------------------- Iteration      1(  14)  ---------------------------------------


    EDDIAG:  cpu time      0.0782: real time      0.0796
  RMM-DIIS:  cpu time      0.1988: real time      0.2014
    ORTHCH:  cpu time      0.0050: real time      0.0050
       DOS:  cpu time      0.0003: real time      0.0003
    --------------------------------------------
      LOOP:  cpu time      0.2822: real time      0.2863

 eigenvalue-minimisations  :    36
 total energy-change (2. order) :-0.9813848E-02  (-0.9510527E-02)
 number of electron      48.0000000 magnetization 
 augmentation part       48.0000000 magnetization 

 Free energy of the ion-electron system (eV)
  ---------------------------------------------------
  alpha Z        PSCENC =         9.73354436
  Ewald energy   TEWEN  =      1865.82284762
  -Hartree energ DENC   =     -3547.56209190
  -exchange      EXHF   =         0.00000000
  -V(xc)+E(xc)   XCENC  =       172.61125320
  PAW double counting   =      1660.34980416    -1671.29803938
  entropy T*S    EENTRO =        -0.00000000
  eigenvalues    EBANDS =      -808.53742722
  atomic energy  EATOM  =      2209.41246822
  Solvation  Ediel_sol  =         0.00000000
  ---------------------------------------------------
  free energy    TOTEN  =      -109.46764095 eV

  energy without entropy =     -109.46764095  energy(sigma->0) =     -109.46764095


--------------------------------------------------------------------------------------------------------




--------------------------------------- Iteration      1(  15)  ---------------------------------------


    EDDIAG:  cpu time      0.0753: real time      0.0767
  RMM-DIIS:  cpu time      0.3529: real time      0.3575
    ORTHCH:  cpu time      0.0049: real time      0.0050
       DOS:  cpu time      0.0002: real time      0.0002
    --------------------------------------------
      LOOP:  cpu time      0.4333: real time      0.4395

 eigenvalue-minimisations  :    78
 total energy-change (2. order) :-0.5191927E-02  (-0.5146567E-02)
 number of electron      48.0000000 magnetization 
 augmentation part       48.0000000 magnetization 

 Free energy of the ion-electron system (eV)
  ---------------------------------------------------
  alpha Z        PSCENC =         9.73354436
  Ewald energy   TEWEN  =      1865.82284762
  -Hartree energ DENC   =     -3547.56209190
  -exchange      EXHF   =         0.00000000
  -V(xc)+E(xc)   XCENC  =       172.61125320
  PAW double counting   =      1660.34980416    -1671.29803938
  entropy T*S    EENTRO =        -0.00000000
  eigenvalues    EBANDS =      -808.54261915
  atomic energy  EATOM  =      2209.41246822
  Solvation  Ediel_sol  =         0.00000000
  ---------------------------------------------------
  free energy    TOTEN  =      -109.47283288 eV

  energy without entropy =     -109.47283288  energy(sigma->0) =     -109.47283288


--------------------------------------------------------------------------------------------------------




--------------------------------------- Iteration      1(  16)  ---------------------------------------


    EDDIAG:  cpu time      0.0820: real time      0.0835
  RMM-DIIS:  cpu time      0.3750: real time      0.3797
    ORTHCH:  cpu time      0.0033: real time      0.0033
       DOS:  cpu time      0.0003: real time      0.0003
    --------------------------------------------
      LOOP:  cpu time      0.4606: real time      0.4667

 eigenvalue-minimisations  :    80
 total energy-change (2. order) :-0.1364859E-02  (-0.1345853E-02)
 number of electron      48.0000000 magnetization 
 augmentation part       48.0000000 magnetization 

 Free energy of the ion-electron system (eV)
  ---------------------------------------------------
  alpha Z        PSCENC =         9.73354436
  Ewald energy   TEWEN  =      1865.82284762
  -Hartree energ DENC   =     -3547.56209190
  -exchange      EXHF   =         0.00000000
  -V(xc)+E(xc)   XCENC  =       172.61125320
  PAW double counting   =      1660.34980416    -1671.29803938
  entropy T*S    EENTRO =        -0.00000000
  eigenvalues    EBANDS =      -808.54398401
  atomic energy  EATOM  =      2209.41246822
  Solvation  Ediel_sol  =         0.00000000
  ---------------------------------------------------
  free energy    TOTEN  =      -109.47419774 eV

  energy without entropy =     -109.47419774  energy(sigma->0) =     -109.47419774


--------------------------------------------------------------------------------------------------------




--------------------------------------- Iteration      1(  17)  ---------------------------------------


    EDDIAG:  cpu time      0.0871: real time      0.0888
  RMM-DIIS:  cpu time      0.3631: real time      0.3671
    ORTHCH:  cpu time      0.0043: real time      0.0043
       DOS:  cpu time      0.0002: real time      0.0002
    --------------------------------------------
      LOOP:  cpu time      0.4547: real time      0.4604

 eigenvalue-minimisations  :    76
 total energy-change (2. order) :-0.1822101E-03  (-0.1733018E-03)
 number of electron      48.0000000 magnetization 
 augmentation part       48.0000000 magnetization 

 Free energy of the ion-electron system (eV)
  ---------------------------------------------------
  alpha Z        PSCENC =         9.73354436
  Ewald energy   TEWEN  =      1865.82284762
  -Hartree energ DENC   =     -3547.56209190
  -exchange      EXHF   =         0.00000000
  -V(xc)+E(xc)   XCENC  =       172.61125320
  PAW double counting   =      1660.34980416    -1671.29803938
  entropy T*S    EENTRO =        -0.00000000
  eigenvalues    EBANDS =      -808.54416622
  atomic energy  EATOM  =      2209.41246822
  Solvation  Ediel_sol  =         0.00000000
  ---------------------------------------------------
  free energy    TOTEN  =      -109.47437995 eV

  energy without entropy =     -109.47437995  energy(sigma->0) =     -109.47437995


--------------------------------------------------------------------------------------------------------




--------------------------------------- Iteration      1(  18)  ---------------------------------------


    EDDIAG:  cpu time      0.0932: real time      0.0944
  RMM-DIIS:  cpu time      0.3008: real time      0.3046
    ORTHCH:  cpu time      0.0036: real time      0.0037
       DOS:  cpu time      0.0002: real time      0.0002
    --------------------------------------------
      LOOP:  cpu time      0.3978: real time      0.4028

 eigenvalue-minimisations  :    62
 total energy-change (2. order) :-0.1366089E-04  (-0.1303880E-04)
 number of electron      48.0000000 magnetization 
 augmentation part       48.0000000 magnetization 

 Free energy of the ion-electron system (eV)
  ---------------------------------------------------
  alpha Z        PSCENC =         9.73354436
  Ewald energy   TEWEN  =      1865.82284762
  -Hartree energ DENC   =     -3547.56209190
  -exchange      EXHF   =         0.00000000
  -V(xc)+E(xc)   XCENC  =       172.61125320
  PAW double counting   =      1660.34980416    -1671.29803938
  entropy T*S    EENTRO =        -0.00000000
  eigenvalues    EBANDS =      -808.54417988
  atomic energy  EATOM  =      2209.41246822
  Solvation  Ediel_sol  =         0.00000000
  ---------------------------------------------------
  free energy    TOTEN  =      -109.47439361 eV

  energy without entropy =     -109.47439361  energy(sigma->0) =     -109.47439361


--------------------------------------------------------------------------------------------------------




--------------------------------------- Iteration      1(  19)  ---------------------------------------


    EDDIAG:  cpu time      0.0615: real time      0.0626
  RMM-DIIS:  cpu time      0.2052: real time      0.2078
    ORTHCH:  cpu time      0.0040: real time      0.0040
       DOS:  cpu time      0.0004: real time      0.0004
    --------------------------------------------
      LOOP:  cpu time      0.2710: real time      0.2747

 eigenvalue-minimisations  :    50
 total energy-change (2. order) :-0.8814282E-06  (-0.8159984E-06)
 number of electron      48.0000000 magnetization 
 augmentation part       48.0000000 magnetization 

 Free energy of the ion-electron system (eV)
  ---------------------------------------------------
  alpha Z        PSCENC =         9.73354436
  Ewald energy   TEWEN  =      1865.82284762
  -Hartree energ DENC   =     -3547.56209190
  -exchange      EXHF   =         0.00000000
  -V(xc)+E(xc)   XCENC  =       172.61125320
  PAW double counting   =      1660.34980416    -1671.29803938
  entropy T*S    EENTRO =        -0.00000000
  eigenvalues    EBANDS =      -808.54418076
  atomic energy  EATOM  =      2209.41246822
  Solvation  Ediel_sol  =         0.00000000
  ---------------------------------------------------
  free energy    TOTEN  =      -109.47439449 eV

  energy without entropy =     -109.47439449  energy(sigma->0) =     -109.47439449


--------------------------------------------------------------------------------------------------------




--------------------------------------- Iteration      1(  20)  ---------------------------------------


    EDDIAG:  cpu time      0.0816: real time      0.0832
  RMM-DIIS:  cpu time      0.2367: real time      0.2397
    ORTHCH:  cpu time      0.0048: real time      0.0050
       DOS:  cpu time      0.0002: real time      0.0002
    CHARGE:  cpu time      0.0450: real time      0.0456
    MIXING:  cpu time      0.0109: real time      0.0109
    --------------------------------------------
      LOOP:  cpu time      0.3792: real time      0.3847

 eigenvalue-minimisations  :    43
 total energy-change (2. order) :-0.1792214E-06  (-0.1782007E-06)
 number of electron      47.9999966 magnetization 
 augmentation part        2.9758989 magnetization 

 Broyden mixing:
  rms(total) = 0.16605E+01    rms(broyden)= 0.16595E+01
  rms(prec ) = 0.20671E+01
  weight for this iteration     100.00

 Free energy of the ion-electron system (eV)
  ---------------------------------------------------
  alpha Z        PSCENC =         9.73354436
  Ewald energy   TEWEN  =      1865.82284762
  -Hartree energ DENC   =     -3547.56209190
  -exchange      EXHF   =         0.00000000
  -V(xc)+E(xc)   XCENC  =       172.61125320
  PAW double counting   =      1660.34980416    -1671.29803938
  entropy T*S    EENTRO =        -0.00000000
  eigenvalues    EBANDS =      -808.54418094
  atomic energy  EATOM  =      2209.41246822
  Solvation  Ediel_sol  =         0.00000000
  ---------------------------------------------------
  free energy    TOTEN  =      -109.47439467 eV

  energy without entropy =     -109.47439467  energy(sigma->0) =     -109.47439467


--------------------------------------------------------------------------------------------------------




--------------------------------------- Iteration      1(  21)  ---------------------------------------


    POTLOK:  cpu time      0.2376: real time      0.2405
    SETDIJ:  cpu time      0.0034: real time      0.0034
    EDDIAG:  cpu time      0.0496: real time      0.0501
  RMM-DIIS:  cpu time      0.5419: real time      0.5490
    ORTHCH:  cpu time      0.0053: real time      0.0054
       DOS:  cpu time      0.0002: real time      0.0002
    CHARGE:  cpu time      0.0451: real time      0.0457
    MIXING:  cpu time      0.0107: real time      0.0108
    --------------------------------------------
      LOOP:  cpu time      0.8937: real time      0.9052

 eigenvalue-minimisations  :   120
 total energy-change (2. order) : 0.7793243E+01  (-0.1363658E+01)
 number of electron      47.9999967 magnetization 
 augmentation part        2.8161062 magnetization 

 Broyden mixing:
  rms(total) = 0.89465E+00    rms(broyden)= 0.89455E+00
  rms(prec ) = 0.10542E+01
  weight for this iteration     100.00

 eigenvalues of (default mixing * dielectric matrix)
  average eigenvalue GAMMA=   1.4524
  1.4524

 Free energy of the ion-electron system (eV)
  ---------------------------------------------------
  alpha Z        PSCENC =         9.73354436
  Ewald energy   TEWEN  =      1865.82284762
  -Hartree energ DENC   =     -3630.60108667
  -exchange      EXHF   =         0.00000000
  -V(xc)+E(xc)   XCENC  =       176.75231744
  PAW double counting   =      2461.40835068    -2473.45868457
  entropy T*S    EENTRO =        -0.00000000
  eigenvalues    EBANDS =      -720.75090869
  atomic energy  EATOM  =      2209.41246822
  Solvation  Ediel_sol  =         0.00000000
  ---------------------------------------------------
  free energy    TOTEN  =      -101.68115162 eV

  energy without entropy =     -101.68115162  energy(sigma->0) =     -101.68115162


--------------------------------------------------------------------------------------------------------




--------------------------------------- Iteration      1(  22)  ---------------------------------------


    POTLOK:  cpu time      0.2195: real time      0.2219
    SETDIJ:  cpu time      0.0035: real time      0.0035
    EDDIAG:  cpu time      0.0883: real time      0.0893
  RMM-DIIS:  cpu time      0.5493: real time      0.5565
    ORTHCH:  cpu time      0.0037: real time      0.0037
       DOS:  cpu time      0.0002: real time      0.0002
    CHARGE:  cpu time      0.0373: real time      0.0378
    MIXING:  cpu time      0.0074: real time      0.0075
    --------------------------------------------
      LOOP:  cpu time      0.9092: real time      0.9205

 eigenvalue-minimisations  :   120
 total energy-change (2. order) : 0.1826378E+01  (-0.3093619E+00)
 number of electron      47.9999967 magnetization 
 augmentation part        2.7741842 magnetization 

 Broyden mixing:
  rms(total) = 0.38757E+00    rms(broyden)= 0.38753E+00
  rms(prec ) = 0.44134E+00
  weight for this iteration     100.00

 eigenvalues of (default mixing * dielectric matrix)
  average eigenvalue GAMMA=   1.6507
  1.1513  2.1500

 Free energy of the ion-electron system (eV)
  ---------------------------------------------------
  alpha Z        PSCENC =         9.73354436
  Ewald energy   TEWEN  =      1865.82284762
  -Hartree energ DENC   =     -3688.24117655
  -exchange      EXHF   =         0.00000000
  -V(xc)+E(xc)   XCENC  =       179.66318634
  PAW double counting   =      3409.77987128    -3422.19666394
  entropy T*S    EENTRO =        -0.00000000
  eigenvalues    EBANDS =      -663.82885060
  atomic energy  EATOM  =      2209.41246822
  Solvation  Ediel_sol  =         0.00000000
  ---------------------------------------------------
  free energy    TOTEN  =       -99.85477327 eV

  energy without entropy =      -99.85477327  energy(sigma->0) =      -99.85477327


--------------------------------------------------------------------------------------------------------




--------------------------------------- Iteration      1(  23)  ---------------------------------------


    POTLOK:  cpu time      0.2117: real time      0.2143
    SETDIJ:  cpu time      0.0031: real time      0.0031
    EDDIAG:  cpu time      0.0786: real time      0.0796
  RMM-DIIS:  cpu time      0.5409: real time      0.5477
    ORTHCH:  cpu time      0.0046: real time      0.0046
       DOS:  cpu time      0.0002: real time      0.0002
    CHARGE:  cpu time      0.0249: real time      0.0251
    MIXING:  cpu time      0.0054: real time      0.0054
    --------------------------------------------
      LOOP:  cpu time      0.8693: real time      0.8801

 eigenvalue-minimisations  :   120
 total energy-change (2. order) : 0.2814364E+00  (-0.3917219E-01)
 number of electron      47.9999967 magnetization 
 augmentation part        2.7510829 magnetization 

 Broyden mixing:
  rms(total) = 0.11044E+00    rms(broyden)= 0.11041E+00
  rms(prec ) = 0.14419E+00
  weight for this iteration     100.00

 eigenvalues of (default mixing * dielectric matrix)
  average eigenvalue GAMMA=   1.5907
  0.9544  2.1878  1.6299

 Free energy of the ion-electron system (eV)
  ---------------------------------------------------
  alpha Z        PSCENC =         9.73354436
  Ewald energy   TEWEN  =      1865.82284762
  -Hartree energ DENC   =     -3716.83005963
  -exchange      EXHF   =         0.00000000
  -V(xc)+E(xc)   XCENC  =       181.18806152
  PAW double counting   =      4047.94119721    -4060.36941002
  entropy T*S    EENTRO =        -0.00000000
  eigenvalues    EBANDS =      -636.47198613
  atomic energy  EATOM  =      2209.41246822
  Solvation  Ediel_sol  =         0.00000000
  ---------------------------------------------------
  free energy    TOTEN  =       -99.57333687 eV

  energy without entropy =      -99.57333687  energy(sigma->0) =      -99.57333687


--------------------------------------------------------------------------------------------------------




--------------------------------------- Iteration      1(  24)  ---------------------------------------


    POTLOK:  cpu time      0.2288: real time      0.2315
    SETDIJ:  cpu time      0.0032: real time      0.0032
    EDDIAG:  cpu time      0.0900: real time      0.0915
  RMM-DIIS:  cpu time      0.4664: real time      0.4717
    ORTHCH:  cpu time      0.0043: real time      0.0043
       DOS:  cpu time      0.0004: real time      0.0004
    CHARGE:  cpu time      0.0388: real time      0.0393
    MIXING:  cpu time      0.0090: real time      0.0091
    --------------------------------------------
      LOOP:  cpu time      0.8408: real time      0.8510

 eigenvalue-minimisations  :   107
 total energy-change (2. order) : 0.3334724E-01  (-0.2336511E-02)
 number of electron      47.9999967 magnetization 
 augmentation part        2.7540233 magnetization 

 Broyden mixing:
  rms(total) = 0.32264E-01    rms(broyden)= 0.32260E-01
  rms(prec ) = 0.69334E-01
  weight for this iteration     100.00

 eigenvalues of (default mixing * dielectric matrix)
  average eigenvalue GAMMA=   1.5763
  2.0829  2.0829  0.9511  1.1881

 Free energy of the ion-electron system (eV)
  ---------------------------------------------------
  alpha Z        PSCENC =         9.73354436
  Ewald energy   TEWEN  =      1865.82284762
  -Hartree energ DENC   =     -3723.13784480
  -exchange      EXHF   =         0.00000000
  -V(xc)+E(xc)   XCENC  =       181.41135846
  PAW double counting   =      4175.37379326    -4187.68857540
  entropy T*S    EENTRO =        -0.00000000
  eigenvalues    EBANDS =      -630.46758135
  atomic energy  EATOM  =      2209.41246822
  Solvation  Ediel_sol  =         0.00000000
  ---------------------------------------------------
  free energy    TOTEN  =       -99.53998963 eV

  energy without entropy =      -99.53998963  energy(sigma->0) =      -99.53998963


--------------------------------------------------------------------------------------------------------




--------------------------------------- Iteration      1(  25)  ---------------------------------------


    POTLOK:  cpu time      0.2443: real time      0.2472
    SETDIJ:  cpu time      0.0039: real time      0.0039
    EDDIAG:  cpu time      0.0907: real time      0.0919
  RMM-DIIS:  cpu time      0.3724: real time      0.3770
    ORTHCH:  cpu time      0.0039: real time      0.0039
       DOS:  cpu time      0.0002: real time      0.0002
    CHARGE:  cpu time      0.0378: real time      0.0382
    MIXING:  cpu time      0.0128: real time      0.0130
    --------------------------------------------
      LOOP:  cpu time      0.7660: real time      0.7753

 eigenvalue-minimisations  :    93
 total energy-change (2. order) : 0.6098296E-02  (-0.4466861E-03)
 number of electron      47.9999967 magnetization 
 augmentation part        2.7532235 magnetization 

 Broyden mixing:
  rms(total) = 0.17514E-01    rms(broyden)= 0.17513E-01
  rms(prec ) = 0.46085E-01
  weight for this iteration     100.00

 eigenvalues of (default mixing * dielectric matrix)
  average eigenvalue GAMMA=   1.7143
  2.5347  2.5347  0.9384  1.0927  1.4709

 Free energy of the ion-electron system (eV)
  ---------------------------------------------------
  alpha Z        PSCENC =         9.73354436
  Ewald energy   TEWEN  =      1865.82284762
  -Hartree energ DENC   =     -3728.91392681
  -exchange      EXHF   =         0.00000000
  -V(xc)+E(xc)   XCENC  =       181.54289017
  PAW double counting   =      4188.93760206    -4201.22213918
  entropy T*S    EENTRO =        -0.00000000
  eigenvalues    EBANDS =      -624.84717777
  atomic energy  EATOM  =      2209.41246822
  Solvation  Ediel_sol  =         0.00000000
  ---------------------------------------------------
  free energy    TOTEN  =       -99.53389133 eV

  energy without entropy =      -99.53389133  energy(sigma->0) =      -99.53389133


--------------------------------------------------------------------------------------------------------




--------------------------------------- Iteration      1(  26)  ---------------------------------------


    POTLOK:  cpu time      0.2479: real time      0.2506
    SETDIJ:  cpu time      0.0065: real time      0.0065
    EDDIAG:  cpu time      0.0732: real time      0.0740
[...]
    SETDIJ:  cpu time      0.0024: real time      0.0025
    EDDIAG:  cpu time      0.0362: real time      0.0365
  RMM-DIIS:  cpu time      0.1261: real time      0.1275
    ORTHCH:  cpu time      0.0028: real time      0.0028
       DOS:  cpu time      0.0001: real time      0.0001
    CHARGE:  cpu time      0.0197: real time      0.0199
    MIXING:  cpu time      0.0049: real time      0.0050
    --------------------------------------------
      LOOP:  cpu time      0.3209: real time      0.3239

 eigenvalue-minimisations  :    49
 total energy-change (2. order) : 0.4441758E-06  (-0.1257548E-05)
 number of electron      48.0000017 magnetization 
 augmentation part        2.7345139 magnetization 

 Broyden mixing:
  rms(total) = 0.31316E-03    rms(broyden)= 0.31286E-03
  rms(prec ) = 0.34787E-03
  weight for this iteration     100.00

 eigenvalues of (default mixing * dielectric matrix)
  average eigenvalue GAMMA=   1.6162
  2.2176  0.9462  1.6847

 Free energy of the ion-electron system (eV)
  ---------------------------------------------------
  alpha Z        PSCENC =         9.73354436
  Ewald energy   TEWEN  =      1837.25526095
  -Hartree energ DENC   =     -3714.36715127
  -exchange      EXHF   =         0.00000000
  -V(xc)+E(xc)   XCENC  =       181.31347726
  PAW double counting   =      4095.55988042    -4107.78209788
  entropy T*S    EENTRO =        -0.00000000
  eigenvalues    EBANDS =      -610.70174408
  atomic energy  EATOM  =      2209.41246822
  Solvation  Ediel_sol  =         0.00000000
  ---------------------------------------------------
  free energy    TOTEN  =       -99.57636202 eV

  energy without entropy =      -99.57636202  energy(sigma->0) =      -99.57636202


--------------------------------------------------------------------------------------------------------




--------------------------------------- Iteration     10(   5)  ---------------------------------------


    POTLOK:  cpu time      0.1246: real time      0.1257
    SETDIJ:  cpu time      0.0034: real time      0.0035
    EDDIAG:  cpu time      0.0364: real time      0.0368
  RMM-DIIS:  cpu time      0.1184: real time      0.1196
    ORTHCH:  cpu time      0.0028: real time      0.0028
       DOS:  cpu time      0.0001: real time      0.0001
    CHARGE:  cpu time      0.0197: real time      0.0198
    MIXING:  cpu time      0.0051: real time      0.0052
    --------------------------------------------
      LOOP:  cpu time      0.3105: real time      0.3134

 eigenvalue-minimisations  :    46
 total energy-change (2. order) :-0.7591598E-07  (-0.2685895E-06)
 number of electron      48.0000017 magnetization 
 augmentation part        2.7345236 magnetization 

 Broyden mixing:
  rms(total) = 0.13311E-03    rms(broyden)= 0.13303E-03
  rms(prec ) = 0.15668E-03
  weight for this iteration     100.00

 eigenvalues of (default mixing * dielectric matrix)
  average eigenvalue GAMMA=   1.7717
  2.5316  2.2130  0.9551  1.3869

 Free energy of the ion-electron system (eV)
  ---------------------------------------------------
  alpha Z        PSCENC =         9.73354436
  Ewald energy   TEWEN  =      1837.25526095
  -Hartree energ DENC   =     -3714.36107134
  -exchange      EXHF   =         0.00000000
  -V(xc)+E(xc)   XCENC  =       181.31322137
  PAW double counting   =      4095.39845170    -4107.62073026
  entropy T*S    EENTRO =        -0.00000000
  eigenvalues    EBANDS =      -610.70750709
  atomic energy  EATOM  =      2209.41246822
  Solvation  Ediel_sol  =         0.00000000
  ---------------------------------------------------
  free energy    TOTEN  =       -99.57636210 eV

  energy without entropy =      -99.57636210  energy(sigma->0) =      -99.57636210


--------------------------------------------------------------------------------------------------------




--------------------------------------- Iteration     10(   6)  ---------------------------------------


    POTLOK:  cpu time      0.1242: real time      0.1252
    SETDIJ:  cpu time      0.0024: real time      0.0025
    EDDIAG:  cpu time      0.0365: real time      0.0368
  RMM-DIIS:  cpu time      0.1104: real time      0.1116
    ORTHCH:  cpu time      0.0028: real time      0.0028
       DOS:  cpu time      0.0001: real time      0.0001
    --------------------------------------------
      LOOP:  cpu time      0.2764: real time      0.2789

 eigenvalue-minimisations  :    42
 total energy-change (2. order) :-0.1456310E-06  (-0.7426570E-07)
 number of electron      48.0000017 magnetization 
 augmentation part        2.7345236 magnetization 

 Free energy of the ion-electron system (eV)
  ---------------------------------------------------
  alpha Z        PSCENC =         9.73354436
  Ewald energy   TEWEN  =      1837.25526095
  -Hartree energ DENC   =     -3714.36275977
  -exchange      EXHF   =         0.00000000
  -V(xc)+E(xc)   XCENC  =       181.31325213
  PAW double counting   =      4095.31398496    -4107.53635095
  entropy T*S    EENTRO =        -0.00000000
  eigenvalues    EBANDS =      -610.70576214
  atomic energy  EATOM  =      2209.41246822
  Solvation  Ediel_sol  =         0.00000000
  ---------------------------------------------------
  free energy    TOTEN  =       -99.57636224 eV

  energy without entropy =      -99.57636224  energy(sigma->0) =      -99.57636224


--------------------------------------------------------------------------------------------------------




 average (electrostatic) potential at core
  the test charge radii are     0.6991  0.7167  0.5201  0.7215
  (the norm of the test charge is              1.0000)
       1 -57.9950       2 -58.5458       3 -59.9844       4 -59.7315       5 -58.1246
       6 -58.1224       7 -58.0436       8 -85.4161       9 -41.3051      10 -41.3052
      11 -41.3375      12 -44.5926      13 -41.5566      14 -41.4476      15 -41.4392
      16 -80.8043
 
 
 
 E-fermi :  -4.2982     XC(G=0):  -1.9355     alpha+bet : -1.0032

 Fermi energy:        -4.2982047948

 k-point     1 :       0.0000    0.0000    0.0000
  band No.  band energies     occupation 
      1     -30.0552      2.00000
      2     -26.0861      2.00000
      3     -20.7600      2.00000
      4     -18.6299      2.00000
      5     -17.6622      2.00000
      6     -16.5095      2.00000
      7     -14.7209      2.00000
      8     -14.1719      2.00000
      9     -13.3023      2.00000
     10     -12.2794      2.00000
     11     -11.3304      2.00000
     12     -10.7779      2.00000
     13     -10.5547      2.00000
     14      -9.6222      2.00000
     15      -9.4429      2.00000
     16      -9.3180      2.00000
     17      -9.1801      2.00000
     18      -9.0156      2.00000
     19      -8.5747      2.00000
     20      -8.0501      2.00000
     21      -7.6306      2.00000
     22      -7.4155      2.00000
     23      -5.3934      2.00000
     24      -4.8693      2.00000
     25      -0.4978      0.00000
     26      -0.3287      0.00000
     27      -0.2047      0.00000
     28       0.3324      0.00000
     29       0.5817      0.00000
     30       0.8845      0.00000
     31       1.1246      0.00000
     32       1.6230      0.00000
     33       1.8470      0.00000
     34       1.9258      0.00000
     35       2.0399      0.00000
     36       2.1096      0.00000


--------------------------------------------------------------------------------------------------------


 soft charge-density along one line, spin component           1
         0         1         2         3         4         5         6         7         8         9
 total charge-density along one line
 
 pseudopotential strength for first ion, spin component:           1
 10.206  13.572  -0.001  -0.000   0.000   0.004   0.000  -0.000
 13.572  18.047  -0.002  -0.000   0.000   0.005   0.001  -0.000
 -0.001  -0.002  -4.336  -0.000   0.000   8.484   0.001  -0.000
 -0.000  -0.000  -0.000  -4.334   0.000   0.001   8.480  -0.000
  0.000   0.000   0.000   0.000  -4.334  -0.000  -0.000   8.479
  0.004   0.005   8.484   0.001  -0.000 -18.737  -0.001   0.000
  0.000   0.001   0.001   8.480  -0.000  -0.001 -18.728   0.000
 -0.000  -0.000  -0.000  -0.000   8.479   0.000   0.000 -18.727
 total augmentation occupancy for first ion, spin component:           1
  7.700  -3.330  -0.000  -0.002  -0.002  -0.011   0.000   0.000
 -3.330   1.455   0.024   0.003   0.001   0.010  -0.000  -0.000
 -0.000   0.024   1.579  -0.007   0.001   0.138  -0.001  -0.000
 -0.002   0.003  -0.007   1.645  -0.001  -0.001   0.132  -0.000
 -0.002   0.001   0.001  -0.001   1.625  -0.000  -0.000   0.131
 -0.011   0.010   0.138  -0.001  -0.000   0.013  -0.000  -0.000
  0.000  -0.000  -0.001   0.132  -0.000  -0.000   0.011  -0.000
  0.000  -0.000  -0.000  -0.000   0.131  -0.000  -0.000   0.011


------------------------ aborting loop because EDIFF is reached ----------------------------------------





 total charge

# of ion       s       p       d       tot
------------------------------------------
    1        0.837   1.799   0.000   2.637
    2        0.861   1.771   0.000   2.633
    3        0.856   1.713   0.000   2.569
    4        0.857   1.751   0.000   2.608
    5        0.866   1.790   0.000   2.656
    6        0.865   1.770   0.000   2.636
    7        0.864   1.775   0.000   2.639
    8        1.747   4.359   0.000   6.106
    9        0.638   0.043   0.000   0.681
   10        0.638   0.043   0.000   0.681
   11        0.644   0.043   0.000   0.687
   12        0.616   0.119   0.000   0.735
   13        0.640   0.046   0.000   0.686
   14        0.646   0.045   0.000   0.691
   15        0.644   0.045   0.000   0.690
   16        1.566   3.600   0.000   5.166
--------------------------------------------------
tot         13.787  20.713   0.000  34.500
 
    CHARGE:  cpu time      0.0197: real time      0.0199
    FORLOC:  cpu time      0.0199: real time      0.0200
    FORNL :  cpu time      0.0648: real time      0.0655
    STRESS:  cpu time      0.2047: real time      0.2069
    FORCOR:  cpu time      0.1346: real time      0.1354
    FORHAR:  cpu time      0.0448: real time      0.0451
    MIXING:  cpu time      0.0055: real time      0.0056
    OFIELD:  cpu time      0.0001: real time      0.0001

  FORCE on cell =-STRESS in cart. coord.  units (eV):
  Direction    XX          YY          ZZ          XY          YZ          ZX
  --------------------------------------------------------------------------------------
  Alpha Z     9.73354     9.73354     9.73354
  Ewald    -508.20761  1094.65176  1250.80949   -42.29434    48.35028  -115.76252
  Hartree   703.34690  1473.51208  1537.50662   -28.67543    66.16299   -71.45714
  E(xc)    -198.90483  -195.00583  -194.60142    -0.05936    -0.14856    -0.20180
  Local    -785.82451 -3078.40193 -3265.35027    70.18352  -126.81693   182.02236
  n-local  -109.56506  -109.98189  -107.98430    -0.04886     0.17194    -0.07689
  augment    25.02839    23.16189    20.10594    -0.03704     1.42511     0.21315
  Kinetic   864.18358   782.27465   749.78212     0.87514    10.96081     5.24468
  Fock        0.00000     0.00000     0.00000     0.00000     0.00000     0.00000
  -------------------------------------------------------------------------------------
  Total      -0.20958    -0.05572     0.00173    -0.05637     0.10563    -0.01816
  in kB      -0.32571    -0.08659     0.00269    -0.08760     0.16416    -0.02822
  external pressure =       -0.14 kB  Pullay stress =        0.00 kB


 VOLUME and BASIS-vectors are now :
 -----------------------------------------------------------------------------
  energy-cutoff  :      500.00
  volume of cell :     1030.95
      direct lattice vectors                 reciprocal lattice vectors
     7.756100000  0.000000000  0.000000000     0.128930777  0.000000000  0.000000000
     0.000000000 11.836100000  0.000000000     0.000000000  0.084487289  0.000000000
     0.000000000  0.000000000 11.230200000     0.000000000  0.000000000  0.089045609

  length of vectors
     7.756100000 11.836100000 11.230200000     0.128930777  0.084487289  0.089045609


 FORCES acting on ions
    electron-ion (+dipol)            ewald-force                    non-local-force                 convergence-correction
 -----------------------------------------------------------------------------------------------
   0.429E+01 -.192E+03 -.364E+02   -.432E+01 0.193E+03 0.366E+02   0.276E-01 -.131E+01 -.137E+00   -.258E-04 0.160E-03 0.204E-03
   0.471E+01 -.113E+03 -.731E+02   -.481E+01 0.114E+03 0.749E+02   0.913E-01 -.127E+01 -.175E+01   0.210E-05 0.149E-03 0.269E-03
   0.122E+01 -.217E+02 -.277E+01   -.159E+01 0.183E+02 0.113E+02   0.362E+00 0.342E+01 -.855E+01   -.382E-05 -.453E-03 0.382E-03
   -.943E+00 0.892E+02 0.137E+01   0.629E+00 -.874E+02 0.473E+01   0.311E+00 -.175E+01 -.611E+01   0.107E-04 -.201E-03 -.936E-05
   -.283E+00 0.206E+03 -.681E+02   0.248E+00 -.208E+03 0.695E+02   0.329E-01 0.175E+01 -.135E+01   0.656E-05 -.444E-03 0.197E-03
   0.652E+01 0.108E+03 -.189E+03   -.657E+01 -.108E+03 0.190E+03   0.490E-01 0.179E+00 -.113E+01   -.413E-06 -.193E-03 0.261E-03
   0.920E+01 -.563E+02 -.199E+03   -.926E+01 0.565E+02 0.201E+03   0.580E-01 -.183E+00 -.134E+01   0.838E-05 -.158E-03 0.215E-03
   -.126E+02 -.225E+03 0.367E+03   0.143E+02 0.250E+03 -.409E+03   -.167E+01 -.250E+02 0.426E+02   0.444E-04 -.664E-03 -.266E-03
   -.523E+02 -.545E+02 0.193E+02   0.568E+02 0.565E+02 -.218E+02   -.450E+01 -.201E+01 0.248E+01   -.361E-04 0.436E-04 0.799E-04
   0.519E+02 -.528E+02 0.244E+02   -.562E+02 0.546E+02 -.273E+02   0.432E+01 -.186E+01 0.289E+01   0.312E-04 0.441E-04 0.854E-04
   0.344E+01 -.524E+02 -.605E+02   -.371E+01 0.546E+02 0.656E+02   0.275E+00 -.220E+01 -.512E+01   -.439E-06 0.239E-04 -.121E-04
   -.424E+01 -.260E+02 0.105E+03   0.445E+01 0.314E+02 -.112E+03   -.204E+00 -.544E+01 0.633E+01   0.136E-05 -.154E-03 0.370E-04
   -.929E+00 0.863E+02 -.113E+02   0.103E+01 -.920E+02 0.113E+02   -.104E+00 0.577E+01 0.108E+00   0.166E-05 -.630E-04 0.332E-04
   0.257E+01 0.430E+02 -.725E+02   -.276E+01 -.459E+02 0.775E+02   0.187E+00 0.286E+01 -.500E+01   0.362E-05 -.478E-04 0.229E-04
   0.400E+01 -.344E+02 -.775E+02   -.429E+01 0.372E+02 0.825E+02   0.285E+00 -.285E+01 -.495E+01   0.357E-05 -.151E-04 0.152E-04
   -.148E+02 0.277E+03 0.248E+03   0.160E+02 -.325E+03 -.255E+03   -.119E+01 0.484E+02 0.689E+01   0.634E-04 -.240E-03 -.515E-03
 -----------------------------------------------------------------------------------------------
   0.164E+01 -.186E+02 -.258E+02   0.711E-14 0.000E+00 0.171E-12   -.167E+01 0.185E+02 0.258E+02   0.110E-03 -.221E-02 0.100E-02
 
 
 POSITION                                       TOTAL-FORCE (eV/Angst)
 -----------------------------------------------------------------------------------
      3.85965      8.41768      6.03747        -0.000719      0.003158      0.014869
      3.88274      6.91682      6.09208        -0.006924     -0.010840      0.003089
      3.94981      6.16826      4.92237         0.001510     -0.001524      0.003474
      3.97587      4.77153      4.88941        -0.001488     -0.001634     -0.012932
      3.93047      4.07736      6.09977        -0.000444     -0.013671      0.013283
      3.86182      4.79549      7.29405        -0.001758     -0.004624     -0.005179
      3.83883      6.19287      7.29373        -0.003148      0.002720      0.012618
      3.99853      6.80951      3.69790        -0.005368     -0.018629      0.002583
      4.76000      8.81147      5.54305        -0.006897      0.019927      0.009816
      2.99616      8.78154      5.46109         0.009994      0.019475      0.011289
      3.80553      8.83912      7.04872         0.002209      0.011217     -0.010026
      4.06636      4.75342      2.98716         0.005612     -0.022978     -0.037052
      3.95008      2.98723      6.08050         0.000798      0.015986      0.015346
      3.82653      4.25408      8.24005         0.000416      0.007966      0.002406
      3.78450      6.74070      8.23665         0.004614     -0.004002     -0.023971
      4.04402      4.09193      3.70479         0.001593     -0.002549      0.000389
 -----------------------------------------------------------------------------------
    total drift:                               -0.031326     -0.041729      0.030121


--------------------------------------------------------------------------------------------------------



  FREE ENERGIE OF THE ION-ELECTRON SYSTEM (eV)
  ---------------------------------------------------
  free  energy   TOTEN  =       -99.57636224 eV

  energy  without entropy=      -99.57636224  energy(sigma->0) =      -99.57636224
 
 d Force = 0.1938237E-03[ 0.800E-04, 0.308E-03]  d Energy = 0.1899944E-03 0.383E-05
 d Force = 0.5707153E+00[ 0.570E+00, 0.571E+00]  d Ewald  = 0.5707152E+00 0.753E-07


--------------------------------------------------------------------------------------------------------


    POTLOK:  cpu time      0.1273: real time      0.1281


--------------------------------------------------------------------------------------------------------


 stress matrix after NEB project (eV)
     -0.20958     -0.05637     -0.01816
     -0.05637     -0.05572      0.10563
     -0.01816      0.10563      0.00173
  FORCES: max atom, RMS     0.043959    0.019466
  FORCE total and by dimension    0.077863    0.037052
  Stress total and by dimension    0.276338    0.209584
 Conjugate gradient step on ions:
 trial-energy change:   -0.000190  1 .order   -0.000194   -0.000308   -0.000080
  (g-gl).g = 0.275E-03      g.g   = 0.305E-03  gl.gl    = 0.122E-02
 g(Force)  = 0.305E-03   g(Stress)= 0.000E+00 ortho     = 0.286E-04
 gamma     =   0.22494
 trial     =   0.98829
 opt step  =   1.33532  (harmonic =   1.33532) maximal distance =0.00129864
 next E    =   -99.576380   (d E  =  -0.00021)


--------------------------------------------------------------------------------------------------------


     LOOP+:  cpu time      2.6236: real time      2.7766
    4ORBIT:  cpu time      0.0000: real time      0.0000



 total charge

# of ion       s       p       d       tot
------------------------------------------
    1        0.837   1.799   0.000   2.637
    2        0.861   1.771   0.000   2.633
    3        0.856   1.713   0.000   2.569
    4        0.857   1.751   0.000   2.608
    5        0.866   1.790   0.000   2.656
    6        0.865   1.770   0.000   2.636
    7        0.864   1.775   0.000   2.639
    8        1.747   4.359   0.000   6.106
    9        0.638   0.043   0.000   0.681
   10        0.638   0.043   0.000   0.681
   11        0.644   0.043   0.000   0.687
   12        0.616   0.119   0.000   0.735
   13        0.640   0.046   0.000   0.686
   14        0.646   0.045   0.000   0.691
   15        0.644   0.045   0.000   0.690
   16        1.566   3.600   0.000   5.166
--------------------------------------------------
tot         13.787  20.713   0.000  34.500
 

 total amount of memory used by VASP MPI-rank0    58246. kBytes
=======================================================================

   base      :      30000. kBytes
   nonlr-proj:        455. kBytes
   fftplans  :       8683. kBytes
   grid      :      18151. kBytes
   one-center:         12. kBytes
   wavefun   :        945. kBytes
 
  
  
 General timing and accounting informations for this job:
 ========================================================
  
                  Total CPU time used (sec):       67.424
                            User time (sec):       59.740
                          System time (sec):        7.683
                         Elapsed time (sec):       73.337
  
                   Maximum memory used (kb):      241560.
                   Average memory used (kb):          N/A
  
                          Minor page faults:        30991
                          Major page faults:         5646
                 Voluntary context switches:         2450
