<?xml version="1.0" encoding="ISO-8859-1"?>
<modeling>
 <generator>
  <i name="program" type="string">vasp </i>
  <i name="version" type="string">6.4.1  </i>
  <i name="subversion" type="string">05Apr23 (build Jun 16 2023 21:25:53) gamma-only                       parallel </i>
  <i name="platform" type="string">LinuxIFC </i>
  <i name="date" type="string">2024 07 14 </i>
  <i name="time" type="string">18:49:36 </i>
 </generator>
 <incar>
  <i type="string" name="SYSTEM">QM9</i>
  <i type="string" name="ALGO">V</i>
  <i type="int" name="NELM">   150</i>
  <i type="int" name="NELMDL">   -20</i>
  <i type="int" name="NELMIN">     6</i>
  <i type="int" name="IBRION">     2</i>
  <i name="EDIFF">      0.00001000</i>
  <i name="EDIFFG">     -0.02000000</i>
  <i type="int" name="NSW">    10</i>
  <i type="int" name="ISIF">     2</i>
  <i type="int" name="ISYM">     0</i>
  <i name="ENCUT">    500.00000000</i>
  <i name="POTIM">      0.20000000</i>
  <i type="string" name="LREAL">Auto</i>
  <i type="int" name="ISMEAR">     0</i>
  <i name="SIGMA">      0.10000000</i>
  <i type="logical" name="LWAVE"> F  </i>
  <i type="logical" name="LCHARG"> F  </i>
  <i type="int" name="LORBIT">    11</i>
 </incar>
 <primitive_cell>
  <structure name="primitive_cell" >
   <crystal>
    <varray name="basis" >
     <v>       7.75610000       0.00000000       0.00000000 </v>
     <v>       0.00000000      11.83610000       0.00000000 </v>
     <v>       0.00000000       0.00000000      11.23020000 </v>
    </varray>
    <i name="volume">   1030.95454200 </i>
    <varray name="rec_basis" >
     <v>       0.12893078       0.00000000       0.00000000 </v>
     <v>       0.00000000       0.08448729       0.00000000 </v>
     <v>       0.00000000       0.00000000       0.08904561 </v>
    </varray>
   </crystal>
   <varray name="positions" >
    <v>       0.49765991       0.71083381       0.53741696 </v>
    <v>       0.50063821       0.58366354       0.54235009 </v>
    <v>       0.50939261       0.52113450       0.43802426 </v>
    <v>       0.51262877       0.40341836       0.43537070 </v>
    <v>       0.50678821       0.34498695       0.54290217 </v>
    <v>       0.49796934       0.40531932       0.64908016 </v>
    <v>       0.49490079       0.52299322       0.64910687 </v>
    <v>       0.51529764       0.57466564       0.33140995 </v>
    <v>       0.61320767       0.74424853       0.49380243 </v>
    <v>       0.38679233       0.74172236       0.48653630 </v>
    <v>       0.49071054       0.74653813       0.62697013 </v>
    <v>       0.52418097       0.40156808       0.26713683 </v>
    <v>       0.50927657       0.25346187       0.54126374 </v>
    <v>       0.49341808       0.35983981       0.73286317 </v>
    <v>       0.48800299       0.56895430       0.73254261 </v>
    <v>       0.52129292       0.34647392       0.33045716 </v>
   </varray>
  </structure>
  <varray name="primitive_index" >
   <v type="int" >        1 </v>
   <v type="int" >        2 </v>
   <v type="int" >        3 </v>
   <v type="int" >        4 </v>
   <v type="int" >        5 </v>
   <v type="int" >        6 </v>
   <v type="int" >        7 </v>
   <v type="int" >        8 </v>
   <v type="int" >        9 </v>
   <v type="int" >       10 </v>
   <v type="int" >       11 </v>
   <v type="int" >       12 </v>
   <v type="int" >       13 </v>
   <v type="int" >       14 </v>
   <v type="int" >       15 </v>
   <v type="int" >       16 </v>
  </varray>
 </primitive_cell>
 <kpoints>
  <generation param="Gamma">
   <v type="int" name="divisions">       1        1        1 </v>
   <v name="usershift">      0.00000000       0.00000000       0.00000000 </v>
   <v name="genvec1">      1.00000000       0.00000000       0.00000000 </v>
   <v name="genvec2">      0.00000000       1.00000000       0.00000000 </v>
   <v name="genvec3">      0.00000000       0.00000000       1.00000000 </v>
   <v name="shift">      0.00000000       0.00000000       0.00000000 </v>
  </generation>
  <varray name="kpointlist" >
   <v>       0.00000000       0.00000000       0.00000000 </v>
  </varray>
  <varray name="weights" >
   <v>       1.00000000 </v>
  </varray>
 </kpoints>
 <parameters>
  <separator name="general" >
   <i type="string" name="SYSTEM">QM9</i>
   <i type="logical" name="LCOMPAT"> F  </i>
  </separator>
  <separator name="electronic" >
   <i type="string" name="PREC">normal</i>
   <i name="ENMAX">    500.00000000</i>
   <i name="ENAUG">    644.87300000</i>
   <i name="EDIFF">      0.00001000</i>
   <i type="int" name="IALGO">    48</i>
   <i type="int" name="IWAVPR">    11</i>
   <i type="int" name="NBANDS">    36</i>
   <i type="int" name="NBANDSLOW">    -1</i>
   <i type="int" name="NBANDSHIGH">    -1</i>
   <i name="NELECT">     48.00000000</i>
   <i type="int" name="TURBO">     0</i>
   <i type="int" name="IRESTART">     0</i>
   <i type="int" name="NREBOOT">     0</i>
   <i type="int" name="NMIN">     0</i>
   <i name="EREF">      0.00000000</i>
   <separator name="electronic smearing" >
    <i type="int" name="ISMEAR">     0</i>
    <i name="SIGMA">      0.10000000</i>
    <i name="KSPACING">      0.50000000</i>
    <i type="logical" name="KGAMMA"> T  </i>
    <i type="logical" name="KBLOWUP"> T  </i>
   </separator>
   <separator name="electronic projectors" >
    <i type="logical" name="LREAL"> T  </i>
    <v name="ROPT">     -0.00050000     -0.00050000     -0.00050000     -0.00050000</v>
    <i type="int" name="LMAXPAW">  -100</i>
    <i type="int" name="LMAXMIX">     2</i>
    <i type="logical" name="NLSPLINE"> F  </i>
   </separator>
   <separator name="electronic startup" >
    <i type="int" name="ISTART">     0</i>
    <i type="int" name="ICHARG">     2</i>
    <i type="int" name="INIWAV">     1</i>
   </separator>
   <separator name="electronic spin" >
    <i type="int" name="ISPIN">     1</i>
    <i type="logical" name="LNONCOLLINEAR"> F  </i>
    <v name="MAGMOM">      1.00000000      1.00000000      1.00000000      1.00000000      1.00000000      1.00000000      1.00000000      1.00000000      1.00000000      1.00000000      1.00000000      1.00000000      1.00000000      1.00000000      1.00000000      1.00000000</v>
    <i name="NUPDOWN">     -1.00000000</i>
    <i type="logical" name="LSORBIT"> F  </i>
    <v name="SAXIS">      0.00000000      0.00000000      1.00000000</v>
    <i type="logical" name="LSPIRAL"> F  </i>
    <v name="QSPIRAL">      0.00000000      0.00000000      0.00000000</v>
    <i type="logical" name="LZEROZ"> F  </i>
   </separator>
   <separator name="electronic exchange-correlation" >
    <i type="logical" name="LASPH"> F  </i>
    <i type="logical" name="LMETAGGA"> F  </i>
   </separator>
   <separator name="electronic convergence" >
    <i type="int" name="NELM">   150</i>
    <i type="int" name="NELMDL">   -20</i>
    <i type="int" name="NELMIN">     6</i>
    <i name="ENINI">    500.00000000</i>
    <separator name="electronic convergence detail" >
     <i type="logical" name="LDIAG"> T  </i>
     <i type="logical" name="LSUBROT"> F  </i>
     <i name="WEIMIN">      0.00100000</i>
     <i name="EBREAK">      0.00000007</i>
     <i name="DEPER">      0.30000000</i>
     <i type="int" name="NRMM">     4</i>
     <i name="TIME">      0.40000000</i>
    </separator>
   </separator>
   <separator name="electronic mixer" >
    <i name="AMIX">      0.40000000</i>
    <i name="BMIX">      1.00000000</i>
    <i name="AMIN">      0.10000000</i>
    <i name="AMIX_MAG">      1.60000000</i>
    <i name="BMIX_MAG">      1.00000000</i>
    <separator name="electronic mixer details" >
     <i type="int" name="IMIX">     4</i>
     <i type="logical" name="MIXFIRST"> F  </i>
     <i type="int" name="MAXMIX">   -45</i>
     <i name="WC">    100.00000000</i>
     <i type="int" name="INIMIX">     1</i>
     <i type="int" name="MIXPRE">     1</i>
     <i type="int" name="MREMOVE">     5</i>
    </separator>
   </separator>
   <separator name="electronic dipolcorrection" >
    <i type="logical" name="LDIPOL"> F  </i>
    <i type="logical" name="LMONO"> F  </i>
    <i type="int" name="IDIPOL">     0</i>
    <i name="EPSILON">      1.00000000</i>
    <v name="DIPOL">   -100.00000000   -100.00000000   -100.00000000</v>
    <i name="EFIELD">      0.00000000</i>
   </separator>
  </separator>
  <separator name="grids" >
   <i type="int" name="NGX">    42</i>
   <i type="int" name="NGY">    70</i>
   <i type="int" name="NGZ">    64</i>
   <i type="int" name="NGXF">    84</i>
   <i type="int" name="NGYF">   140</i>
   <i type="int" name="NGZF">   128</i>
   <i type="logical" name="ADDGRID"> F  </i>
  </separator>
  <separator name="ionic" >
   <i type="int" name="NSW">    10</i>
   <i type="int" name="IBRION">     2</i>
   <i type="int" name="MDALGO">     0</i>
   <i type="int" name="ISIF">     2</i>
   <i name="PSTRESS">      0.00000000</i>
   <i name="EDIFFG">     -0.02000000</i>
   <i type="int" name="NFREE">     1</i>
   <i name="POTIM">      0.20000000</i>
   <i name="SMASS">     -3.00000000</i>
   <i name="SCALEE">      1.00000000</i>
  </separator>
  <separator name="ionic md" >
   <i name="TEBEG">      0.00010000</i>
   <i name="TEEND">      0.00010000</i>
   <i type="int" name="NBLOCK">     1</i>
   <i type="int" name="KBLOCK">    10</i>
   <i type="int" name="NPACO">   256</i>
   <i name="APACO">     10.00000000</i>
  </separator>
  <separator name="symmetry" >
   <i type="int" name="ISYM">     0</i>
   <i name="SYMPREC">      0.00001000</i>
  </separator>
  <separator name="dos" >
   <i type="int" name="LORBIT">    11</i>
   <v name="RWIGS">     -1.00000000     -1.00000000     -1.00000000     -1.00000000</v>
   <i type="int" name="NEDOS">   301</i>
   <i name="EMIN">     10.00000000</i>
   <i name="EMAX">    -10.00000000</i>
   <i name="EFERMI">      0.00000000</i>
  </separator>
  <separator name="writing" >
   <i type="int" name="NWRITE">     2</i>
   <i type="logical" name="LWAVE"> F  </i>
   <i type="logical" name="LDOWNSAMPLE"> F  </i>
   <i type="logical" name="LCHARG"> F  </i>
   <i type="logical" name="LPARD"> F  </i>
   <i type="logical" name="LVTOT"> F  </i>
   <i type="logical" name="LVHAR"> F  </i>
   <i type="logical" name="LELF"> F  </i>
   <i type="logical" name="LOPTICS"> F  </i>
   <v name="STM">      0.00000000      0.00000000      0.00000000      0.00000000      0.00000000      0.00000000      0.00000000</v>
  </separator>
  <separator name="performance" >
   <i type="int" name="NPAR">     4</i>
   <i type="int" name="NSIM">     4</i>
   <i type="int" name="NBLK">    -1</i>
   <i type="logical" name="LPLANE"> T  </i>
   <i type="logical" name="LSCALAPACK"> T  </i>
   <i type="logical" name="LSCAAWARE"> F  </i>
   <i type="logical" name="LSCALU"> F  </i>
   <i type="logical" name="LASYNC"> F  </i>
   <i type="logical" name="LORBITALREAL"> F  </i>
  </separator>
  <separator name="miscellaneous" >
   <i type="int" name="IDIOT">     3</i>
   <i type="int" name="PHON_NSTRUCT">    -1</i>
   <i type="logical" name="LMUSIC"> F  </i>
   <v name="POMASS">     12.01100000     18.99800000      1.00000000     16.00000000</v>
   <v name="DARWINR">      0.00000000      0.00000000      0.00000000      0.00000000</v>
   <v name="DARWINV">      1.00000000      1.00000000      1.00000000      1.00000000</v>
   <i type="logical" name="LCORR"> T  </i>
  </separator>
  <i type="logical" name="GGA_COMPAT"> T  </i>
  <i type="logical" name="LBERRY"> F  </i>
  <i type="int" name="ICORELEVEL">     0</i>
  <i type="logical" name="LDAU"> F  </i>
  <i type="int" name="I_CONSTRAINED_M">     0</i>
  <separator name="electronic exchange-correlation" >
   <i type="string" name="GGA">--</i>
   <i type="int" name="VOSKOWN">     0</i>
   <i type="logical" name="LHFCALC"> F  </i>
   <i type="string" name="PRECFOCK"></i>
   <i type="logical" name="LSYMGRAD"> F  </i>
   <i type="logical" name="LHFONE"> F  </i>
   <i type="logical" name="LRHFCALC"> F  </i>
   <i type="logical" name="LTHOMAS"> F  </i>
   <i type="logical" name="LMODELHF"> F  </i>
   <i type="logical" name="LFOCKACE"> F  </i>
   <i name="ENCUT4O">     -1.00000000</i>
   <i type="int" name="EXXOEP">     0</i>
   <i type="int" name="FOURORBIT">     0</i>
   <i name="AEXX">      0.00000000</i>
   <i name="HFALPHA">      0.00000000</i>
   <i name="MCALPHA">      0.00000000</i>
   <i name="ALDAX">      1.00000000</i>
   <i name="AGGAX">      1.00000000</i>
   <i name="ALDAC">      1.00000000</i>
   <i name="AGGAC">      1.00000000</i>
   <i type="int" name="NKREDX">     1</i>
   <i type="int" name="NKREDY">     1</i>
   <i type="int" name="NKREDZ">     1</i>
   <i type="logical" name="SHIFTRED"> F  </i>
   <i type="logical" name="ODDONLY"> F  </i>
   <i type="logical" name="EVENONLY"> F  </i>
   <i type="int" name="LMAXFOCK">     0</i>
   <i type="int" name="NMAXFOCKAE">     0</i>
   <i type="logical" name="LFOCKAEDFT"> F  </i>
   <i name="HFSCREEN">      0.00000000</i>
   <i name="HFSCREENC">      0.00000000</i>
   <i type="int" name="NBANDSGWLOW">     0</i>
  </separator>
  <separator name="vdW DFT" >
   <i type="logical" name="LUSE_VDW"> F  </i>
   <i type="int" name="IVDW_NL">     1</i>
   <i type="logical" name="LSPIN_VDW"> F  </i>
   <i name="Zab_VDW">     -0.84910000</i>
   <i name="PARAM1">      0.12340000</i>
   <i name="PARAM2">      1.00000000</i>
   <i name="PARAM3">      0.00000000</i>
  </separator>
  <separator name="model GW" >
   <i type="int" name="MODEL_GW">     0</i>
   <i name="MODEL_EPS0">     38.66079533</i>
   <i name="MODEL_ALPHA">      1.00000000</i>
  </separator>
  <separator name="linear response parameters" >
   <i type="logical" name="LEPSILON"> F  </i>
   <i type="logical" name="LRPA"> F  </i>
   <i type="logical" name="LNABLA"> F  </i>
   <i type="logical" name="LVEL"> F  </i>
   <i name="CSHIFT">      0.10000000</i>
   <i name="OMEGAMAX">     -1.00000000</i>
   <i name="DEG_THRESHOLD">      0.00200000</i>
   <i name="RTIME">     -0.10000000</i>
   <i name="WPLASMAI">      0.00000000</i>
   <v name="DFIELD">      0.00000000      0.00000000      0.00000000</v>
   <v name="WPLASMA">      0.00000000      0.00000000      0.00000000      0.00000000      0.00000000      0.00000000      0.00000000      0.00000000      0.00000000</v>
  </separator>
  <separator name="orbital magnetization" >
   <i type="logical" name="NUCIND"> F  </i>
   <v name="MAGPOS">      0.00000000      0.00000000      0.00000000</v>
   <i type="logical" name="LNICSALL"> T  </i>
   <i type="logical" name="ORBITALMAG"> F  </i>
   <i type="logical" name="LMAGBLOCH"> F  </i>
   <i type="logical" name="LCHIMAG"> F  </i>
   <i type="logical" name="LGAUGE"> T  </i>
   <i type="int" name="MAGATOM">     0</i>
   <v name="MAGDIPOL">      0.00000000      0.00000000      0.00000000</v>
   <v name="AVECCONST">      0.00000000      0.00000000      0.00000000</v>
  </separator>
  <separator name="response functions" >
   <i type="logical" name="LALL_IN_ONE"> F  </i>
   <i type="int" name="IALL_IN_ONE">    -1</i>
   <i type="int" name="NBANDS_WAVE">    -1</i>
   <i type="logical" name="LFINITE_TEMPERATURE"> F  </i>
   <i type="logical" name="LADDER"> F  </i>
   <i type="logical" name="LRPAFORCE"> F  </i>
   <i type="logical" name="LFXC"> F  </i>
   <i type="logical" name="LHARTREE"> T  </i>
   <i type="int" name="IBSE">     0</i>
   <v type="int" name="KPOINT">    -1     0     0     0</v>
   <i type="logical" name="LTCTC"> F  </i>
   <i type="logical" name="LTCTE"> F  </i>
   <i type="logical" name="LTETE"> F  </i>
   <i type="logical" name="LTRIPLET"> F  </i>
   <i type="logical" name="LFXCEPS"> F  </i>
   <i type="logical" name="LFXHEG"> F  </i>
   <i type="int" name="NATURALO">     2</i>
   <i type="logical" name="LHOLEGF"> F  </i>
   <i type="logical" name="L2ORDER"> F  </i>
   <i type="logical" name="LDMP1"> F  </i>
   <i type="logical" name="LMP2LT"> F  </i>
   <i type="logical" name="LSMP2LT"> F  </i>
   <i type="logical" name="LGWLF"> F  </i>
   <i name="ENCUTGW">     -1.60000002</i>
   <i name="ENCUTGWSOFT">     -1.60000002</i>
   <i name="ENCUTLF">     -1.00000000</i>
   <i type="logical" name="LESF_SPLINES"> F  </i>
   <i type="int" name="LMAXMP2">    -1</i>
   <i name="SCISSOR">      0.00000000</i>
   <i type="int" name="NOMEGA">     0</i>
   <i type="int" name="NOMEGAR">     0</i>
   <i type="int" name="NBANDSGW">    -1</i>
   <i type="int" name="NBANDSO">    -1</i>
   <i type="int" name="NBANDSV">    -1</i>
   <i type="int" name="NELMGW">     1</i>
   <i type="int" name="NELMHF">     1</i>
   <i type="int" name="DIM">     3</i>
   <i type="int" name="IESPILON">     4</i>
   <i type="int" name="ANTIRES">     0</i>
   <i name="OMEGAMAX">    -30.00000000</i>
   <i name="OMEGAMIN">    -30.00000000</i>
   <i name="OMEGATL">   -200.00000000</i>
   <i type="int" name="OMEGAGRID">     0</i>
   <i name="CSHIFT">     -0.10000000</i>
   <i type="logical" name="LSELFENERGY"> F  </i>
   <i type="logical" name="LSPECTRAL"> F  </i>
   <i type="logical" name="LSPECTRALGW"> F  </i>
   <i type="logical" name="LSINGLES"> F  </i>
   <i type="logical" name="LFERMIGW"> F  </i>
   <i type="logical" name="ODDONLYGW"> F  </i>
   <i type="logical" name="EVENONLYGW"> F  </i>
   <i type="int" name="NKREDLFX">     1</i>
   <i type="int" name="NKREDLFY">     1</i>
   <i type="int" name="NKREDLFZ">     1</i>
   <i type="int" name="MAXMEM">  2800</i>
   <i type="int" name="TELESCOPE">     0</i>
   <i type="int" name="NTAUPAR">    -1</i>
   <i type="int" name="NOMEGAPAR">    -1</i>
   <i name="DAMP_NEWTON">      0.80000001</i>
   <i name="LAMBDA">      1.00000000</i>
  </separator>
  <separator name="External order field" >
   <i name="OFIELD_KAPPA">      0.00000000</i>
   <v name="OFIELD_K">      0.00000000      0.00000000      0.00000000</v>
   <i name="OFIELD_Q6_NEAR">      0.00000000</i>
   <i name="OFIELD_Q6_FAR">      0.00000000</i>
   <i name="OFIELD_A">      0.00000000</i>
  </separator>
  <separator name="optional k-points parameters" >
   <i type="int" name="KPOINTS_OPT_MODE">     1</i>
   <i type="logical" name="LKPOINTS_OPT"> F  </i>
  </separator>
  <separator name="solvation model" >
   <i type="logical" name="LSOL"> F  </i>
  </separator>
 </parameters>
 <atominfo>
  <atoms>      16 </atoms>
  <types>       4 </types>
  <array name="atoms" >
   <dimension dim="1">ion</dimension>
   <field type="string">element</field>
   <field type="int">atomtype</field>
   <set>
    <rc><c>C </c><c>   1</c></rc>
    <rc><c>C </c><c>   1</c></rc>
    <rc><c>C </c><c>   1</c></rc>
    <rc><c>C </c><c>   1</c></rc>
    <rc><c>C </c><c>   1</c></rc>
    <rc><c>C </c><c>   1</c></rc>
    <rc><c>C </c><c>   1</c></rc>
    <rc><c>F </c><c>   2</c></rc>
    <rc><c>H </c><c>   3</c></rc>
    <rc><c>H </c><c>   3</c></rc>
    <rc><c>H </c><c>   3</c></rc>
    <rc><c>H </c><c>   3</c></rc>
    <rc><c>H </c><c>   3</c></rc>
    <rc><c>H </c><c>   3</c></rc>
    <rc><c>H </c><c>   3</c></rc>
    <rc><c>O </c><c>   4</c></rc>
   </set>
  </array>
  <array name="atomtypes" >
   <dimension dim="1">type</dimension>
   <field type="int">atomspertype</field>
   <field type="string">element</field>
   <field>mass</field>
   <field>valence</field>
   <field type="string">pseudopotential</field>
   <set>
    <rc><c>   7</c><c>C </c><c>     12.01100000</c><c>      4.00000000</c><c>  PAW_PBE C 08Apr2002                   </c></rc>
    <rc><c>   1</c><c>F </c><c>     18.99800000</c><c>      7.00000000</c><c>  PAW_PBE F 08Apr2002                   </c></rc>
    <rc><c>   7</c><c>H </c><c>      1.00000000</c><c>      1.00000000</c><c>  PAW_PBE H 15Jun2001                   </c></rc>
    <rc><c>   1</c><c>O </c><c>     16.00000000</c><c>      6.00000000</c><c>  PAW_PBE O 08Apr2002                   </c></rc>
   </set>
  </array>
 </atominfo>
 <structure name="initialpos" >
  <crystal>
   <varray name="basis" >
    <v>       7.75610000       0.00000000       0.00000000 </v>
    <v>       0.00000000      11.83610000       0.00000000 </v>
    <v>       0.00000000       0.00000000      11.23020000 </v>
   </varray>
   <i name="volume">   1030.95454200 </i>
   <varray name="rec_basis" >
    <v>       0.12893078       0.00000000       0.00000000 </v>
    <v>       0.00000000       0.08448729       0.00000000 </v>
    <v>       0.00000000       0.00000000       0.08904561 </v>
   </varray>
  </crystal>
  <varray name="positions" >
   <v>       0.49765991       0.71083381       0.53741696 </v>
   <v>       0.50063821       0.58366354       0.54235009 </v>
   <v>       0.50939261       0.52113450       0.43802426 </v>
   <v>       0.51262877       0.40341836       0.43537070 </v>
   <v>       0.50678821       0.34498695       0.54290217 </v>
   <v>       0.49796934       0.40531932       0.64908016 </v>
   <v>       0.49490079       0.52299322       0.64910687 </v>
   <v>       0.51529764       0.57466564       0.33140995 </v>
   <v>       0.61320767       0.74424853       0.49380243 </v>
   <v>       0.38679233       0.74172236       0.48653630 </v>
   <v>       0.49071054       0.74653813       0.62697013 </v>
   <v>       0.52418097       0.40156808       0.26713683 </v>
   <v>       0.50927657       0.25346187       0.54126374 </v>
   <v>       0.49341808       0.35983981       0.73286317 </v>
   <v>       0.48800299       0.56895430       0.73254261 </v>
   <v>       0.52129292       0.34647392       0.33045716 </v>
  </varray>
 </structure>
 <calculation>
  <scstep>
   <time name="diag">    0.14    0.36</time>
   <time name="diis">    0.19    0.19</time>
   <time name="orth">    0.00    0.00</time>
   <time name="total">    0.54    0.79</time>
   <energy>
    <i name="alphaZ">      9.73354436 </i>
    <i name="ewald">   1865.82284762 </i>
    <i name="hartreedc">  -3547.56209190 </i>
    <i name="XCdc">    172.61125320 </i>
    <i name="pawpsdc">   1660.34980416 </i>
    <i name="pawaedc">  -1671.29803938 </i>
    <i name="eentropy">     -0.03854577 </i>
    <i name="bandstr">    102.86475077 </i>
    <i name="atom">   2209.41246822 </i>
    <i name="e_fr_energy">    801.89599127 </i>
    <i name="e_wo_entrp">    801.93453704 </i>
    <i name="e_0_energy">    801.91526415 </i>
   </energy>
  </scstep>
  <scstep>
   <time name="diag">    0.09    0.10</time>
   <time name="diis">    0.20    0.21</time>
   <time name="orth">    0.00    0.00</time>
   <time name="total">    0.30    0.31</time>
   <energy>
    <i name="e_fr_energy">    431.79810913 </i>
    <i name="e_wo_entrp">    431.89261559 </i>
    <i name="e_0_energy">    431.84536236 </i>
   </energy>
  </scstep>
  <scstep>
   <time name="diag">    0.08    0.08</time>
   <time name="diis">    0.19    0.19</time>
   <time name="orth">    0.00    0.00</time>
   <time name="total">    0.27    0.27</time>
   <energy>
    <i name="e_fr_energy">    256.32820403 </i>
    <i name="e_wo_entrp">    256.45794511 </i>
    <i name="e_0_energy">    256.39307457 </i>
   </energy>
  </scstep>
  <scstep>
   <time name="diag">    0.09    0.09</time>
   <time name="diis">    0.19    0.19</time>
   <time name="orth">    0.01    0.01</time>
   <time name="total">    0.28    0.28</time>
   <energy>
    <i name="e_fr_energy">     85.94086935 </i>
    <i name="e_wo_entrp">     86.03064742 </i>
    <i name="e_0_energy">     85.98575839 </i>
   </energy>
  </scstep>
  <scstep>
   <time name="diag">    0.09    0.09</time>
   <time name="diis">    0.19    0.19</time>
   <time name="orth">    0.01    0.01</time>
   <time name="total">    0.28    0.29</time>
   <energy>
    <i name="e_fr_energy">    -18.82043922 </i>
    <i name="e_wo_entrp">    -18.71494764 </i>
    <i name="e_0_energy">    -18.76769343 </i>
   </energy>
  </scstep>
  <scstep>
   <time name="diag">    0.09    0.09</time>
   <time name="diis">    0.18    0.19</time>
   <time name="orth">    0.00    0.00</time>
   <time name="total">    0.28    0.29</time>
   <energy>
    <i name="e_fr_energy">    -73.09729827 </i>
    <i name="e_wo_entrp">    -73.09501753 </i>
    <i name="e_0_energy">    -73.09615790 </i>
   </energy>
  </scstep>
  <scstep>
   <time name="diag">    0.09    0.09</time>
   <time name="diis">    0.19    0.19</time>
   <time name="orth">    0.01    0.01</time>
   <time name="total">    0.28    0.29</time>
   <energy>
    <i name="e_fr_energy">   -100.42367491 </i>
    <i name="e_wo_entrp">   -100.42367491 </i>
    <i name="e_0_energy">   -100.42367491 </i>
   </energy>
  </scstep>
  <scstep>
   <time name="diag">    0.08    0.09</time>
   <time name="diis">    0.19    0.20</time>
   <time name="orth">    0.00    0.00</time>
   <time name="total">    0.28    0.29</time>
   <energy>
    <i name="e_fr_energy">   -106.88508972 </i>
    <i name="e_wo_entrp">   -106.88508972 </i>
    <i name="e_0_energy">   -106.88508972 </i>
   </energy>
  </scstep>
  <scstep>
   <time name="diag">    0.09    0.09</time>
   <time name="diis">    0.19    0.19</time>
   <time name="orth">    0.00    0.04</time>
   <time name="total">    0.28    0.32</time>
   <energy>
    <i name="e_fr_energy">   -108.61241434 </i>
    <i name="e_wo_entrp">   -108.61241434 </i>
    <i name="e_0_energy">   -108.61241434 </i>
   </energy>
  </scstep>
  <scstep>
   <time name="diag">    0.08    0.08</time>
   <time name="diis">    0.20    0.20</time>
   <time name="orth">    0.00    0.00</time>
   <time name="total">    0.28    0.29</time>
   <energy>
    <i name="e_fr_energy">   -109.17939354 </i>
    <i name="e_wo_entrp">   -109.17939354 </i>
    <i name="e_0_energy">   -109.17939354 </i>
   </energy>
  </scstep>
  <scstep>
   <time name="diag">    0.08    0.08</time>
   <time name="diis">    0.19    0.20</time>
   <time name="orth">    0.00    0.00</time>
   <time name="total">    0.28    0.28</time>
   <energy>
    <i name="e_fr_energy">   -109.36537953 </i>
    <i name="e_wo_entrp">   -109.36537953 </i>
    <i name="e_0_energy">   -109.36537953 </i>
   </energy>
  </scstep>
  <scstep>
   <time name="diag">    0.08    0.08</time>
   <time name="diis">    0.19    0.19</time>
   <time name="orth">    0.00    0.00</time>
   <time name="total">    0.27    0.28</time>
   <energy>
    <i name="e_fr_energy">   -109.43305752 </i>
    <i name="e_wo_entrp">   -109.43305752 </i>
    <i name="e_0_energy">   -109.43305752 </i>
   </energy>
  </scstep>
  <scstep>
   <time name="diag">    0.09    0.09</time>
   <time name="diis">    0.19    0.19</time>
   <time name="orth">    0.00    0.00</time>
   <time name="total">    0.28    0.29</time>
   <energy>
    <i name="e_fr_energy">   -109.45782710 </i>
    <i name="e_wo_entrp">   -109.45782710 </i>
    <i name="e_0_energy">   -109.45782710 </i>
   </energy>
  </scstep>
  <scstep>
   <time name="diag">    0.08    0.08</time>
   <time name="diis">    0.20    0.20</time>
   <time name="orth">    0.00    0.01</time>
   <time name="total">    0.28    0.29</time>
   <energy>
    <i name="e_fr_energy">   -109.46764095 </i>
    <i name="e_wo_entrp">   -109.46764095 </i>
    <i name="e_0_energy">   -109.46764095 </i>
   </energy>
  </scstep>
  <scstep>
   <time name="diag">    0.08    0.08</time>
   <time name="diis">    0.35    0.36</time>
   <time name="orth">    0.00    0.00</time>
   <time name="total">    0.43    0.44</time>
   <energy>
    <i name="e_fr_energy">   -109.47283288 </i>
    <i name="e_wo_entrp">   -109.47283288 </i>
    <i name="e_0_energy">   -109.47283288 </i>
   </energy>
  </scstep>
  <scstep>
   <time name="diag">    0.08    0.08</time>
   <time name="diis">    0.38    0.38</time>
   <time name="orth">    0.00    0.00</time>
   <time name="total">    0.46    0.47</time>
   <energy>
    <i name="e_fr_energy">   -109.47419774 </i>
    <i name="e_wo_entrp">   -109.47419774 </i>
    <i name="e_0_energy">   -109.47419774 </i>
   </energy>
  </scstep>
  <scstep>
   <time name="diag">    0.09    0.09</time>
   <time name="diis">    0.36    0.37</time>
   <time name="orth">    0.00    0.00</time>
   <time name="total">    0.45    0.46</time>
   <energy>
    <i name="e_fr_energy">   -109.47437995 </i>
    <i name="e_wo_entrp">   -109.47437995 </i>
    <i name="e_0_energy">   -109.47437995 </i>
   </energy>
  </scstep>
  <scstep>
   <time name="diag">    0.09    0.09</time>
   <time name="diis">    0.30    0.30</time>
   <time name="orth">    0.00    0.00</time>
   <time name="total">    0.40    0.40</time>
   <energy>
    <i name="e_fr_energy">   -109.47439361 </i>
    <i name="e_wo_entrp">   -109.47439361 </i>
    <i name="e_0_energy">   -109.47439361 </i>
   </energy>
  </scstep>
  <scstep>
   <time name="diag">    0.06    0.06</time>
   <time name="diis">    0.21    0.21</time>
   <time name="orth">    0.00    0.00</time>
   <time name="total">    0.27    0.27</time>
   <energy>
    <i name="e_fr_energy">   -109.47439449 </i>
    <i name="e_wo_entrp">   -109.47439449 </i>
    <i name="e_0_energy">   -109.47439449 </i>
   </energy>
  </scstep>
  <scstep>
   <time name="diag">    0.08    0.08</time>
   <time name="diis">    0.24    0.24</time>
   <time name="orth">    0.00    0.00</time>
   <time name="total">    0.38    0.38</time>
   <energy>
    <i name="e_fr_energy">   -109.47439467 </i>
    <i name="e_wo_entrp">   -109.47439467 </i>
    <i name="e_0_energy">   -109.47439467 </i>
   </energy>
  </scstep>
  <scstep>
   <time name="diag">    0.05    0.05</time>
   <time name="diis">    0.54    0.55</time>
   <time name="orth">    0.01    0.01</time>
   <time name="total">    0.89    0.91</time>
   <energy>
    <i name="e_fr_energy">   -101.68115162 </i>
    <i name="e_wo_entrp">   -101.68115162 </i>
    <i name="e_0_energy">   -101.68115162 </i>
   </energy>
  </scstep>
  <scstep>
   <time name="diag">    0.09    0.09</time>
   <time name="diis">    0.55    0.56</time>
   <time name="orth">    0.00    0.00</time>
   <time name="total">    0.91    0.92</time>
   <energy>
    <i name="e_fr_energy">    -99.85477327 </i>
    <i name="e_wo_entrp">    -99.85477327 </i>
    <i name="e_0_energy">    -99.85477327 </i>
   </energy>
  </scstep>
  <scstep>
   <time name="diag">    0.08    0.08</time>
   <time name="diis">    0.54    0.55</time>
   <time name="orth">    0.00    0.00</time>
   <time name="total">    0.87    0.88</time>
   <energy>
    <i name="e_fr_energy">    -99.57333687 </i>
    <i name="e_wo_entrp">    -99.57333687 </i>
    <i name="e_0_energy">    -99.57333687 </i>
   </energy>
  </scstep>
  <scstep>
   <time name="diag">    0.09    0.09</time>
   <time name="diis">    0.47    0.47</time>
   <time name="orth">    0.00    0.00</time>
   <time name="total">    0.84    0.85</time>
   <energy>
    <i name="e_fr_energy">    -99.53998963 </i>
    <i name="e_wo_entrp">    -99.53998963 </i>
    <i name="e_0_energy">    -99.53998963 </i>
   </energy>
  </scstep>
  <scstep>
   <time name="diag">    0.09    0.09</time>
   <time name="diis">    0.37    0.38</time>
   <time name="orth">    0.00    0.00</time>
   <time name="total">    0.77    0.78</time>
   <energy>
    <i name="e_fr_energy">    -99.53389133 </i>
    <i name="e_wo_entrp">    -99.53389133 </i>
    <i name="e_0_energy">    -99.53389133 </i>
   </energy>
  </scstep>
  <scstep>
   <time name="diag">    0.07    0.07</time>
   <time name="diis">    0.42    0.43</time>
   <time name="orth">    0.00    0.00</time>
   <time name="total">    0.81    0.82</time>
   <energy>
    <i name="e_fr_energy">    -99.53375793 </i>
    <i name="e_wo_entrp">    -99.53375793 </i>
    <i name="e_0_energy">    -99.53375793 </i>
   </energy>
  </scstep>
  <scstep>
   <time name="diag">    0.08    0.08</time>
   <time name="diis">    0.37    0.37</time>
   <time name="orth">    0.00    0.00</time>
   <time name="total">    0.72    0.73</time>
   <energy>
    <i name="e_fr_energy">    -99.53841558 </i>
    <i name="e_wo_entrp">    -99.53841558 </i>
    <i name="e_0_energy">    -99.53841558 </i>
   </energy>
  </scstep>
  <scstep>
   <time name="diag">    0.08    0.08</time>
   <time name="diis">    0.32    0.33</time>
   <time name="orth">    0.00    0.00</time>
   <time name="total">    0.67    0.68</time>
   <energy>
    <i name="e_fr_energy">    -99.54470652 </i>
    <i name="e_wo_entrp">    -99.54470652 </i>
    <i name="e_0_energy">    -99.54470652 </i>
   </energy>
  </scstep>
  <scstep>
   <time name="diag">    0.09    0.09</time>
   <time name="diis">    0.29    0.29</time>
   <time name="orth">    0.00    0.00</time>
   <time name="total">    0.64    0.64</time>
   <energy>
    <i name="e_fr_energy">    -99.54897866 </i>
    <i name="e_wo_entrp">    -99.54897866 </i>
    <i name="e_0_energy">    -99.54897866 </i>
   </energy>
  </scstep>
  <scstep>
   <time name="diag">    0.09    0.09</time>
   <time name="diis">    0.29    0.30</time>
   <time name="orth">    0.00    0.00</time>
   <time name="total">    0.68    0.69</time>
   <energy>
    <i name="e_fr_energy">    -99.55150501 </i>
    <i name="e_wo_entrp">    -99.55150501 </i>
    <i name="e_0_energy">    -99.55150501 </i>
   </energy>
  </scstep>
  <scstep>
   <time name="diag">    0.07    0.08</time>
   <time name="diis">    0.26    0.27</time>
   <time name="orth">    0.00    0.00</time>
   <time name="total">    0.62    0.63</time>
   <energy>
    <i name="e_fr_energy">    -99.55217146 </i>
    <i name="e_wo_entrp">    -99.55217146 </i>
    <i name="e_0_energy">    -99.55217146 </i>
   </energy>
  </scstep>
  <scstep>
   <time name="diag">    0.08    0.08</time>
   <time name="diis">    0.26    0.26</time>
   <time name="orth">    0.00    0.00</time>
   <time name="total">    0.61    0.62</time>
   <energy>
    <i name="e_fr_energy">    -99.55229652 </i>
    <i name="e_wo_entrp">    -99.55229652 </i>
    <i name="e_0_energy">    -99.55229652 </i>
   </energy>
  </scstep>
  <scstep>
   <time name="diag">    0.08    0.08</time>
   <time name="diis">    0.22    0.22</time>
   <time name="orth">    0.00    0.00</time>
   <time name="total">    0.56    0.56</time>
   <energy>
    <i name="e_fr_energy">    -99.55239451 </i>
    <i name="e_wo_entrp">    -99.55239451 </i>
    <i name="e_0_energy">    -99.55239451 </i>
   </energy>
  </scstep>
  <scstep>
   <time name="diag">    0.09    0.09</time>
   <time name="diis">    0.21    0.21</time>
   <time name="orth">    0.00    0.00</time>
   <time name="total">    0.55    0.56</time>
   <energy>
    <i name="e_fr_energy">    -99.55242273 </i>
    <i name="e_wo_entrp">    -99.55242273 </i>
    <i name="e_0_energy">    -99.55242273 </i>
   </energy>
  </scstep>
  <scstep>
   <time name="diag">    0.07    0.07</time>
   <time name="diis">    0.17    0.18</time>
   <time name="orth">    0.00    0.00</time>
   <time name="total">    0.49    0.49</time>
   <energy>
    <i name="e_fr_energy">    -99.55244328 </i>
    <i name="e_wo_entrp">    -99.55244328 </i>
    <i name="e_0_energy">    -99.55244328 </i>
   </energy>
  </scstep>
  <scstep>
   <time name="diag">    0.05    0.05</time>
   <time name="diis">    0.18    0.18</time>
   <time name="orth">    0.00    0.00</time>
   <time name="total">    0.41    0.42</time>
   <energy>
    <i name="alphaZ">      9.73354436 </i>
    <i name="ewald">   1865.82284762 </i>
    <i name="hartreedc">  -3741.16477165 </i>
    <i name="XCdc">    181.70490661 </i>
    <i name="pawpsdc">   4157.13824816 </i>
    <i name="pawaedc">  -4169.41551734 </i>
    <i name="eentropy">     -0.00000000 </i>
    <i name="bandstr">   -612.78417119 </i>
    <i name="atom">   2209.41246822 </i>
    <i name="e_fr_energy">    -99.55244521 </i>
    <i name="e_wo_entrp">    -99.55244521 </i>
    <i name="e_0_energy">    -99.55244521 </i>
   </energy>
  </scstep>
  <structure>
   <crystal>
    <varray name="basis" >
     <v>       7.75610000       0.00000000       0.00000000 </v>
     <v>       0.00000000      11.83610000       0.00000000 </v>
     <v>       0.00000000       0.00000000      11.23020000 </v>
    </varray>
    <i name="volume">   1030.95454200 </i>
    <varray name="rec_basis" >
     <v>       0.12893078       0.00000000       0.00000000 </v>
     <v>       0.00000000       0.08448729       0.00000000 </v>
     <v>       0.00000000       0.00000000       0.08904561 </v>
    </varray>
   </crystal>
   <varray name="positions" >
    <v>       0.49765991       0.71083381       0.53741696 </v>
    <v>       0.50063821       0.58366354       0.54235009 </v>
    <v>       0.50939261       0.52113450       0.43802426 </v>
    <v>       0.51262877       0.40341836       0.43537070 </v>
    <v>       0.50678821       0.34498695       0.54290217 </v>
    <v>       0.49796934       0.40531932       0.64908016 </v>
    <v>       0.49490079       0.52299322       0.64910687 </v>
    <v>       0.51529764       0.57466564       0.33140995 </v>
    <v>       0.61320767       0.74424853       0.49380243 </v>
    <v>       0.38679233       0.74172236       0.48653630 </v>
    <v>       0.49071054       0.74653813       0.62697013 </v>
    <v>       0.52418097       0.40156808       0.26713683 </v>
    <v>       0.50927657       0.25346187       0.54126374 </v>
    <v>       0.49341808       0.35983981       0.73286317 </v>
    <v>       0.48800299       0.56895430       0.73254261 </v>
    <v>       0.52129292       0.34647392       0.33045716 </v>
   </varray>
  </structure>
  <varray name="forces" >
   <v>      -0.00371400      -0.16902778       0.04407428 </v>
   <v>      -0.01629980       0.32680489       0.00629781 </v>
   <v>      -0.03470790      -0.28716786       0.67692453 </v>
   <v>      -0.00769313       0.02451805       0.16933517 </v>
   <v>      -0.00395170       0.01625749       0.03052062 </v>
   <v>      -0.00006391      -0.01388238      -0.01946911 </v>
   <v>       0.01105622      -0.02681704      -0.01185534 </v>
   <v>       0.05213605       0.42535392      -0.86273968 </v>
   <v>       0.12244707       0.05254452      -0.07221623 </v>
   <v>      -0.11837157       0.04846922      -0.08273583 </v>
   <v>      -0.00877736       0.04276472       0.14600557 </v>
   <v>       0.01639157       0.30991261      -0.45998167 </v>
   <v>       0.00229438      -0.22372187       0.00672298 </v>
   <v>      -0.00832370      -0.10555073       0.17529740 </v>
   <v>      -0.01217663       0.11877551       0.18065474 </v>
   <v>       0.00975439      -0.53923328       0.07316474 </v>
  </varray>
  <varray name="stress" >
   <v>       0.04958381      -0.05699439      -0.25079651 </v>
   <v>      -0.05699439       3.00425563      -0.70247195 </v>
   <v>      -0.25079652      -0.70247196       4.82047235 </v>
  </varray>
  <energy>
   <i name="e_fr_energy">    -99.55244521 </i>
   <i name="e_wo_entrp">    -99.55244521 </i>
   <i name="e_0_energy">    -99.55244521 </i>
  </energy>
  <time name="totalsc">   18.89   19.50</time>
 </calculation>
 <calculation>
  <scstep>
   <time name="diag">    0.10    0.10</time>
   <time name="diis">    0.28    0.28</time>
   <time name="orth">    0.00    0.00</time>
   <time name="total">    0.66    0.67</time>
   <energy>
    <i name="alphaZ">      9.73354436 </i>
    <i name="ewald">   1850.72802403 </i>
    <i name="hartreedc">  -3729.28691185 </i>
    <i name="XCdc">    181.56226335 </i>
    <i name="pawpsdc">   4157.13039300 </i>
    <i name="pawaedc">  -4169.40767262 </i>
    <i name="eentropy">     -0.00000000 </i>
    <i name="bandstr">   -609.42501624 </i>
    <i name="atom">   2209.41246822 </i>
    <i name="e_fr_energy">    -99.55290774 </i>
    <i name="e_wo_entrp">    -99.55290774 </i>
    <i name="e_0_energy">    -99.55290774 </i>
   </energy>
  </scstep>
  <scstep>
   <time name="diag">    0.08    0.08</time>
   <time name="diis">    0.28    0.29</time>
   <time name="orth">    0.00    0.00</time>
   <time name="total">    0.66    0.67</time>
   <energy>
    <i name="e_fr_energy">    -99.56513495 </i>
    <i name="e_wo_entrp">    -99.56513495 </i>
    <i name="e_0_energy">    -99.56513495 </i>
   </energy>
  </scstep>
  <scstep>
   <time name="diag">    0.07    0.07</time>
   <time name="diis">    0.28    0.28</time>
   <time name="orth">    0.00    0.00</time>
   <time name="total">    0.64    0.65</time>
   <energy>
    <i name="e_fr_energy">    -99.56724293 </i>
    <i name="e_wo_entrp">    -99.56724293 </i>
    <i name="e_0_energy">    -99.56724293 </i>
   </energy>
  </scstep>
  <scstep>
   <time name="diag">    0.08    0.08</time>
   <time name="diis">    0.31    0.31</time>
   <time name="orth">    0.00    0.01</time>
   <time name="total">    0.68    0.69</time>
   <energy>
    <i name="e_fr_energy">    -99.56689247 </i>
    <i name="e_wo_entrp">    -99.56689247 </i>
    <i name="e_0_energy">    -99.56689247 </i>
   </energy>
  </scstep>
  <scstep>
   <time name="diag">    0.07    0.07</time>
   <time name="diis">    0.32    0.32</time>
   <time name="orth">    0.00    0.01</time>
   <time name="total">    0.66    0.67</time>
   <energy>
    <i name="e_fr_energy">    -99.56680593 </i>
    <i name="e_wo_entrp">    -99.56680593 </i>
    <i name="e_0_energy">    -99.56680593 </i>
   </energy>
  </scstep>
  <scstep>
   <time name="diag">    0.08    0.08</time>
   <time name="diis">    0.31    0.32</time>
   <time name="orth">    0.00    0.02</time>
   <time name="total">    0.66    0.69</time>
   <energy>
    <i name="e_fr_energy">    -99.56685842 </i>
    <i name="e_wo_entrp">    -99.56685842 </i>
    <i name="e_0_energy">    -99.56685842 </i>
   </energy>
  </scstep>
  <scstep>
   <time name="diag">    0.09    0.09</time>
   <time name="diis">    0.30    0.30</time>
   <time name="orth">    0.00    0.00</time>
   <time name="total">    0.67    0.68</time>
   <energy>
    <i name="e_fr_energy">    -99.56688415 </i>
    <i name="e_wo_entrp">    -99.56688415 </i>
    <i name="e_0_energy">    -99.56688415 </i>
   </energy>
  </scstep>
  <scstep>
   <time name="diag">    0.05    0.05</time>
   <time name="diis">    0.30    0.31</time>
   <time name="orth">    0.00    0.00</time>
   <time name="total">    0.63    0.64</time>
   <energy>
    <i name="e_fr_energy">    -99.56692054 </i>
    <i name="e_wo_entrp">    -99.56692054 </i>
    <i name="e_0_energy">    -99.56692054 </i>
   </energy>
  </scstep>
  <scstep>
   <time name="diag">    0.09    0.09</time>
   <time name="diis">    0.24    0.24</time>
   <time name="orth">    0.01    0.01</time>
   <time name="total">    0.58    0.59</time>
   <energy>
    <i name="e_fr_energy">    -99.56697948 </i>
    <i name="e_wo_entrp">    -99.56697948 </i>
    <i name="e_0_energy">    -99.56697948 </i>
   </energy>
  </scstep>
  <scstep>
   <time name="diag">    0.06    0.07</time>
   <time name="diis">    0.21    0.21</time>
   <time name="orth">    0.00    0.00</time>
   <time name="total">    0.50    0.51</time>
   <energy>
    <i name="e_fr_energy">    -99.56702741 </i>
    <i name="e_wo_entrp">    -99.56702741 </i>
    <i name="e_0_energy">    -99.56702741 </i>
   </energy>
  </scstep>
  <scstep>
   <time name="diag">    0.08    0.08</time>
   <time name="diis">    0.24    0.24</time>
   <time name="orth">    0.00    0.00</time>
   <time name="total">    0.57    0.57</time>
   <energy>
    <i name="e_fr_energy">    -99.56708673 </i>
    <i name="e_wo_entrp">    -99.56708673 </i>
    <i name="e_0_energy">    -99.56708673 </i>
   </energy>
  </scstep>
  <scstep>
   <time name="diag">    0.08    0.08</time>
   <time name="diis">    0.21    0.21</time>
   <time name="orth">    0.01    0.01</time>
   <time name="total">    0.55    0.56</time>
   <energy>
    <i name="e_fr_energy">    -99.56710886 </i>
    <i name="e_wo_entrp">    -99.56710886 </i>
    <i name="e_0_energy">    -99.56710886 </i>
   </energy>
  </scstep>
  <scstep>
   <time name="diag">    0.08    0.08</time>
   <time name="diis">    0.23    0.23</time>
   <time name="orth">    0.00    0.01</time>
   <time name="total">    0.53    0.54</time>
   <energy>
    <i name="alphaZ">      9.73354436 </i>
    <i name="ewald">   1850.72802403 </i>
    <i name="hartreedc">  -3727.65258850 </i>
    <i name="XCdc">    181.46966829 </i>
    <i name="pawpsdc">   4130.09812560 </i>
    <i name="pawaedc">  -4142.32818769 </i>
    <i name="eentropy">     -0.00000000 </i>
    <i name="bandstr">   -611.02817315 </i>
    <i name="atom">   2209.41246822 </i>
    <i name="e_fr_energy">    -99.56711882 </i>
    <i name="e_wo_entrp">    -99.56711882 </i>
    <i name="e_0_energy">    -99.56711882 </i>
   </energy>
  </scstep>
  <structure>
   <crystal>
    <varray name="basis" >
     <v>       7.75610000       0.00000000       0.00000000 </v>
     <v>       0.00000000      11.83610000       0.00000000 </v>
     <v>       0.00000000       0.00000000      11.23020000 </v>
    </varray>
    <i name="volume">   1030.95454200 </i>
    <varray name="rec_basis" >
     <v>       0.12893078       0.00000000       0.00000000 </v>
     <v>       0.00000000       0.08448729       0.00000000 </v>
     <v>       0.00000000       0.00000000       0.08904561 </v>
    </varray>
   </crystal>
   <varray name="positions" >
    <v>       0.49765067       0.71055823       0.53749270 </v>
    <v>       0.50059765       0.58419635       0.54236091 </v>
    <v>       0.50930625       0.52066631       0.43918743 </v>
    <v>       0.51260963       0.40345833       0.43566167 </v>
    <v>       0.50677837       0.34501345       0.54295462 </v>
    <v>       0.49796918       0.40529669       0.64904670 </v>
    <v>       0.49492830       0.52294949       0.64908650 </v>
    <v>       0.51542735       0.57535912       0.32992749 </v>
    <v>       0.61351232       0.74433419       0.49367834 </v>
    <v>       0.38649782       0.74180138       0.48639414 </v>
    <v>       0.49068870       0.74660786       0.62722102 </v>
    <v>       0.52422175       0.40207335       0.26634643 </v>
    <v>       0.50928228       0.25309712       0.54127529 </v>
    <v>       0.49339737       0.35966773       0.73316439 </v>
    <v>       0.48797270       0.56914795       0.73285303 </v>
    <v>       0.52131719       0.34559478       0.33058288 </v>
   </varray>
  </structure>
  <varray name="forces" >
   <v>      -0.01085569       0.19543394      -0.00289394 </v>
   <v>      -0.01767766       0.00220728       0.20877842 </v>
   <v>       0.00270680       0.35074721      -0.46902124 </v>
   <v>       0.00693758      -0.28936717      -0.09257513 </v>
   <v>      -0.00417682      -0.20860564       0.10025060 </v>
   <v>      -0.00314061      -0.05156200       0.13998049 </v>
   <v>       0.00184962       0.15206933       0.10304750 </v>
   <v>       0.01101024      -0.10174603       0.03632942 </v>
   <v>       0.00893210      -0.00654470      -0.01344659 </v>
   <v>      -0.01003839      -0.00507150      -0.01520691 </v>
   <v>      -0.00283992      -0.00696116       0.04934473 </v>
   <v>      -0.00281269      -0.27296871       0.18162943 </v>
   <v>       0.00034090      -0.06693851       0.00571133 </v>
   <v>      -0.00276638      -0.03255620       0.05314821 </v>
   <v>      -0.00310078       0.03080157       0.05461451 </v>
   <v>       0.02563169       0.31106229      -0.33969083 </v>
  </varray>
  <varray name="stress" >
   <v>      -0.27785390      -0.13604770      -0.09749796 </v>
   <v>      -0.13604767       1.75218432       0.58672454 </v>
   <v>      -0.09749796       0.58672453       1.96249784 </v>
  </varray>
  <energy>
   <i name="e_fr_energy">    -99.56711882 </i>
   <i name="e_wo_entrp">    -99.56711882 </i>
   <i name="e_0_energy">    -99.56711882 </i>
  </energy>
  <time name="totalsc">    9.24    9.54</time>
 </calculation>
 <calculation>
  <scstep>
   <time name="diag">    0.08    0.08</time>
   <time name="diis">    0.31    0.32</time>
   <time name="orth">    0.00    0.00</time>
   <time name="total">    0.66    0.68</time>
   <energy>
    <i name="alphaZ">      9.73354436 </i>
    <i name="ewald">   1854.79532462 </i>
    <i name="hartreedc">  -3730.86675010 </i>
    <i name="XCdc">    181.50772876 </i>
    <i name="pawpsdc">   4130.09482358 </i>
    <i name="pawaedc">  -4142.32508005 </i>
    <i name="eentropy">     -0.00000000 </i>
    <i name="bandstr">   -611.92028577 </i>
    <i name="atom">   2209.41246822 </i>
    <i name="e_fr_energy">    -99.56822638 </i>
    <i name="e_wo_entrp">    -99.56822638 </i>
    <i name="e_0_energy">    -99.56822638 </i>
   </energy>
  </scstep>
  <scstep>
   <time name="diag">    0.06    0.06</time>
   <time name="diis">    0.27    0.27</time>
   <time name="orth">    0.00    0.00</time>
   <time name="total">    0.58    0.59</time>
   <energy>
    <i name="e_fr_energy">    -99.56921646 </i>
    <i name="e_wo_entrp">    -99.56921646 </i>
    <i name="e_0_energy">    -99.56921646 </i>
   </energy>
  </scstep>
  <scstep>
   <time name="diag">    0.08    0.09</time>
   <time name="diis">    0.34    0.34</time>
   <time name="orth">    0.00    0.00</time>
   <time name="total">    0.66    0.67</time>
   <energy>
    <i name="e_fr_energy">    -99.56937891 </i>
    <i name="e_wo_entrp">    -99.56937891 </i>
    <i name="e_0_energy">    -99.56937891 </i>
   </energy>
  </scstep>
  <scstep>
   <time name="diag">    0.08    0.09</time>
   <time name="diis">    0.31    0.32</time>
   <time name="orth">    0.00    0.00</time>
   <time name="total">    0.67    0.68</time>
   <energy>
    <i name="e_fr_energy">    -99.56935687 </i>
    <i name="e_wo_entrp">    -99.56935687 </i>
    <i name="e_0_energy">    -99.56935687 </i>
   </energy>
  </scstep>
  <scstep>
   <time name="diag">    0.09    0.09</time>
   <time name="diis">    0.30    0.31</time>
   <time name="orth">    0.00    0.00</time>
   <time name="total">    0.63    0.64</time>
   <energy>
    <i name="e_fr_energy">    -99.56934729 </i>
    <i name="e_wo_entrp">    -99.56934729 </i>
    <i name="e_0_energy">    -99.56934729 </i>
   </energy>
  </scstep>
  <scstep>
   <time name="diag">    0.09    0.09</time>
   <time name="diis">    0.26    0.26</time>
   <time name="orth">    0.00    0.00</time>
   <time name="total">    0.58    0.59</time>
   <energy>
    <i name="alphaZ">      9.73354436 </i>
    <i name="ewald">   1854.79532462 </i>
    <i name="hartreedc">  -3731.30293312 </i>
    <i name="XCdc">    181.53339341 </i>
    <i name="pawpsdc">   4137.18971582 </i>
    <i name="pawaedc">  -4149.43345470 </i>
    <i name="eentropy">     -0.00000000 </i>
    <i name="bandstr">   -611.49740886 </i>
    <i name="atom">   2209.41246822 </i>
    <i name="e_fr_energy">    -99.56935025 </i>
    <i name="e_wo_entrp">    -99.56935025 </i>
    <i name="e_0_energy">    -99.56935025 </i>
   </energy>
  </scstep>
  <structure>
   <crystal>
    <varray name="basis" >
     <v>       7.75610000       0.00000000       0.00000000 </v>
     <v>       0.00000000      11.83610000       0.00000000 </v>
     <v>       0.00000000       0.00000000      11.23020000 </v>
    </varray>
    <i name="volume">   1030.95454200 </i>
    <varray name="rec_basis" >
     <v>       0.12893078       0.00000000       0.00000000 </v>
     <v>       0.00000000       0.08448729       0.00000000 </v>
     <v>       0.00000000       0.00000000       0.08904561 </v>
    </varray>
   </crystal>
   <varray name="positions" >
    <v>       0.49765318       0.71063333       0.53747206 </v>
    <v>       0.50060871       0.58405114       0.54235796 </v>
    <v>       0.50932979       0.52079390       0.43887043 </v>
    <v>       0.51261485       0.40344744       0.43558237 </v>
    <v>       0.50678105       0.34500623       0.54294033 </v>
    <v>       0.49796922       0.40530285       0.64905582 </v>
    <v>       0.49492080       0.52296141       0.64909205 </v>
    <v>       0.51539200       0.57517013       0.33033150 </v>
    <v>       0.61342929       0.74431085       0.49371215 </v>
    <v>       0.38657809       0.74177984       0.48643288 </v>
    <v>       0.49069465       0.74658885       0.62715265 </v>
    <v>       0.52421064       0.40193565       0.26656184 </v>
    <v>       0.50928072       0.25319652       0.54127214 </v>
    <v>       0.49340302       0.35971462       0.73308230 </v>
    <v>       0.48798095       0.56909517       0.73276843 </v>
    <v>       0.52131057       0.34583437       0.33054862 </v>
   </varray>
  </structure>
  <varray name="forces" >
   <v>      -0.00586171       0.09157401       0.01254362 </v>
   <v>      -0.01276340       0.09502778       0.14997621 </v>
   <v>      -0.00400760       0.19011190      -0.18044745 </v>
   <v>       0.00564070      -0.19638210      -0.01829059 </v>
   <v>      -0.00373914      -0.14625899       0.08041690 </v>
   <v>      -0.00257180      -0.04362992       0.09167085 </v>
   <v>       0.00552772       0.10693381       0.07091997 </v>
   <v>       0.01428417       0.03284379      -0.19434739 </v>
   <v>       0.04032758       0.01099843      -0.02945879 </v>
   <v>      -0.03849839       0.01098226      -0.03356390 </v>
   <v>      -0.00372697       0.00806349       0.07578278 </v>
   <v>       0.00292077      -0.11959627       0.01494225 </v>
   <v>       0.00160427      -0.10800204       0.00576112 </v>
   <v>      -0.00350981      -0.05088533       0.08623092 </v>
   <v>      -0.00480221       0.05606685       0.08865278 </v>
   <v>       0.00917584       0.06215233      -0.22078926 </v>
  </varray>
  <varray name="stress" >
   <v>      -0.21132935      -0.10732437      -0.13939973 </v>
   <v>      -0.10732436       2.06500878       0.25143115 </v>
   <v>      -0.13939973       0.25143113       2.71190734 </v>
  </varray>
  <energy>
   <i name="e_fr_energy">    -99.56935025 </i>
   <i name="e_wo_entrp">    -99.56935025 </i>
   <i name="e_0_energy">    -99.56935025 </i>
  </energy>
  <time name="totalsc">    5.01    5.23</time>
 </calculation>
 <calculation>
  <scstep>
   <time name="diag">    0.07    0.07</time>
   <time name="diis">    0.27    0.27</time>
   <time name="orth">    0.00    0.00</time>
   <time name="total">    0.59    0.60</time>
   <energy>
    <i name="alphaZ">      9.73354436 </i>
    <i name="ewald">   1847.37449968 </i>
    <i name="hartreedc">  -3724.73267878 </i>
    <i name="XCdc">    181.47608648 </i>
    <i name="pawpsdc">   4137.15768137 </i>
    <i name="pawaedc">  -4149.40085827 </i>
    <i name="eentropy">     -0.00000000 </i>
    <i name="bandstr">   -610.59234256 </i>
    <i name="atom">   2209.41246822 </i>
    <i name="e_fr_energy">    -99.57159951 </i>
    <i name="e_wo_entrp">    -99.57159951 </i>
    <i name="e_0_energy">    -99.57159951 </i>
   </energy>
  </scstep>
  <scstep>
   <time name="diag">    0.05    0.05</time>
   <time name="diis">    0.28    0.29</time>
   <time name="orth">    0.01    0.01</time>
   <time name="total">    0.54    0.55</time>
   <energy>
    <i name="e_fr_energy">    -99.57326010 </i>
    <i name="e_wo_entrp">    -99.57326010 </i>
    <i name="e_0_energy">    -99.57326010 </i>
   </energy>
  </scstep>
  <scstep>
   <time name="diag">    0.06    0.06</time>
   <time name="diis">    0.31    0.32</time>
   <time name="orth">    0.00    0.00</time>
   <time name="total">    0.67    0.68</time>
   <energy>
    <i name="e_fr_energy">    -99.57353961 </i>
    <i name="e_wo_entrp">    -99.57353961 </i>
    <i name="e_0_energy">    -99.57353961 </i>
   </energy>
  </scstep>
  <scstep>
   <time name="diag">    0.08    0.08</time>
   <time name="diis">    0.33    0.33</time>
   <time name="orth">    0.01    0.01</time>
   <time name="total">    0.68    0.69</time>
   <energy>
    <i name="e_fr_energy">    -99.57350002 </i>
    <i name="e_wo_entrp">    -99.57350002 </i>
    <i name="e_0_energy">    -99.57350002 </i>
   </energy>
  </scstep>
  <scstep>
   <time name="diag">    0.08    0.08</time>
   <time name="diis">    0.32    0.33</time>
   <time name="orth">    0.00    0.00</time>
   <time name="total">    0.66    0.67</time>
   <energy>
    <i name="e_fr_energy">    -99.57352735 </i>
    <i name="e_wo_entrp">    -99.57352735 </i>
    <i name="e_0_energy">    -99.57352735 </i>
   </energy>
  </scstep>
  <scstep>
   <time name="diag">    0.09    0.09</time>
   <time name="diis">    0.27    0.28</time>
   <time name="orth">    0.00    0.00</time>
   <time name="total">    0.58    0.58</time>
   <energy>
    <i name="alphaZ">      9.73354436 </i>
    <i name="ewald">   1847.37449968 </i>
    <i name="hartreedc">  -3724.10502737 </i>
    <i name="XCdc">    181.45191934 </i>
    <i name="pawpsdc">   4122.23094095 </i>
    <i name="pawaedc">  -4134.46339825 </i>
    <i name="eentropy">     -0.00000000 </i>
    <i name="bandstr">   -611.20847164 </i>
    <i name="atom">   2209.41246822 </i>
    <i name="e_fr_energy">    -99.57352470 </i>
    <i name="e_wo_entrp">    -99.57352470 </i>
    <i name="e_0_energy">    -99.57352470 </i>
   </energy>
  </scstep>
  <structure>
   <crystal>
    <varray name="basis" >
     <v>       7.75610000       0.00000000       0.00000000 </v>
     <v>       0.00000000      11.83610000       0.00000000 </v>
     <v>       0.00000000       0.00000000      11.23020000 </v>
    </varray>
    <i name="volume">   1030.95454200 </i>
    <varray name="rec_basis" >
     <v>       0.12893078       0.00000000       0.00000000 </v>
     <v>       0.00000000       0.08448729       0.00000000 </v>
     <v>       0.00000000       0.00000000       0.08904561 </v>
    </varray>
   </crystal>
   <varray name="positions" >
    <v>       0.49763818       0.71073821       0.53750241 </v>
    <v>       0.50057334       0.58426778       0.54260305 </v>
    <v>       0.50930899       0.52102531       0.43873042 </v>
    <v>       0.51262559       0.40314998       0.43559097 </v>
    <v>       0.50677096       0.34478426       0.54307788 </v>
    <v>       0.49796315       0.40523262       0.64920035 </v>
    <v>       0.49493742       0.52312049       0.64920459 </v>
    <v>       0.51544268       0.57531207       0.32982055 </v>
    <v>       0.61356427       0.74433908       0.49364795 </v>
    <v>       0.38644874       0.74180718       0.48635963 </v>
    <v>       0.49068301       0.74661046       0.62730880 </v>
    <v>       0.52422288       0.40181783       0.26648204 </v>
    <v>       0.50928525       0.25298201       0.54128302 </v>
    <v>       0.49339204       0.35961353       0.73326206 </v>
    <v>       0.48796567       0.56920710       0.73295334 </v>
    <v>       0.52133535       0.34581442       0.33020646 </v>
   </varray>
  </structure>
  <varray name="forces" >
   <v>      -0.00302734       0.14188664       0.02457647 </v>
   <v>       0.00878735       0.00313492      -0.06279914 </v>
   <v>      -0.00511805       0.01996739      -0.12813311 </v>
   <v>      -0.00166753       0.06932521      -0.08809407 </v>
   <v>      -0.00036896      -0.09503353       0.04362825 </v>
   <v>      -0.00316304       0.02298192       0.05821869 </v>
   <v>      -0.00113093      -0.02920627       0.10204918 </v>
   <v>       0.00831949      -0.01403742      -0.03260050 </v>
   <v>       0.00944042       0.00407912      -0.01102641 </v>
   <v>      -0.01271338       0.00615521      -0.01366985 </v>
   <v>      -0.00301339       0.01671507       0.03982533 </v>
   <v>       0.00473231      -0.01619310      -0.07174360 </v>
   <v>       0.00030647      -0.10992249       0.01860850 </v>
   <v>      -0.00349388      -0.03444317       0.07029719 </v>
   <v>      -0.00379614       0.04804910       0.07469340 </v>
   <v>       0.00590661      -0.03345859      -0.02383035 </v>
  </varray>
  <varray name="stress" >
   <v>      -0.25351050      -0.09202470      -0.09011757 </v>
   <v>      -0.09202469       1.24366601       0.08676773 </v>
   <v>      -0.09011757       0.08676774       1.78134781 </v>
  </varray>
  <energy>
   <i name="e_fr_energy">    -99.57352470 </i>
   <i name="e_wo_entrp">    -99.57352470 </i>
   <i name="e_0_energy">    -99.57352470 </i>
  </energy>
  <time name="totalsc">    4.94    5.12</time>
 </calculation>
 <calculation>
  <scstep>
   <time name="diag">    0.05    0.05</time>
   <time name="diis">    0.32    0.32</time>
   <time name="orth">    0.01    0.01</time>
   <time name="total">    0.61    0.61</time>
   <energy>
    <i name="alphaZ">      9.73354436 </i>
    <i name="ewald">   1845.24841226 </i>
    <i name="hartreedc">  -3722.23368058 </i>
    <i name="XCdc">    181.43646308 </i>
    <i name="pawpsdc">   4121.68234141 </i>
    <i name="pawaedc">  -4133.91618575 </i>
    <i name="eentropy">     -0.00000000 </i>
    <i name="bandstr">   -610.93705746 </i>
    <i name="atom">   2209.41246822 </i>
    <i name="e_fr_energy">    -99.57369446 </i>
    <i name="e_wo_entrp">    -99.57369446 </i>
    <i name="e_0_energy">    -99.57369446 </i>
   </energy>
  </scstep>
  <scstep>
   <time name="diag">    0.08    0.08</time>
   <time name="diis">    0.32    0.32</time>
   <time name="orth">    0.00    0.00</time>
   <time name="total">    0.66    0.67</time>
   <energy>
    <i name="e_fr_energy">    -99.57383227 </i>
    <i name="e_wo_entrp">    -99.57383227 </i>
    <i name="e_0_energy">    -99.57383227 </i>
   </energy>
  </scstep>
  <scstep>
   <time name="diag">    0.09    0.09</time>
   <time name="diis">    0.32    0.32</time>
   <time name="orth">    0.00    0.00</time>
   <time name="total">    0.67    0.68</time>
   <energy>
    <i name="e_fr_energy">    -99.57385521 </i>
    <i name="e_wo_entrp">    -99.57385521 </i>
    <i name="e_0_energy">    -99.57385521 </i>
   </energy>
  </scstep>
  <scstep>
   <time name="diag">    0.09    0.09</time>
   <time name="diis">    0.29    0.29</time>
   <time name="orth">    0.00    0.00</time>
   <time name="total">    0.62    0.63</time>
   <energy>
    <i name="e_fr_energy">    -99.57385355 </i>
    <i name="e_wo_entrp">    -99.57385355 </i>
    <i name="e_0_energy">    -99.57385355 </i>
   </energy>
  </scstep>
  <scstep>
   <time name="diag">    0.09    0.09</time>
   <time name="diis">    0.22    0.22</time>
   <time name="orth">    0.00    0.00</time>
   <time name="total">    0.58    0.59</time>
   <energy>
    <i name="e_fr_energy">    -99.57385505 </i>
    <i name="e_wo_entrp">    -99.57385505 </i>
    <i name="e_0_energy">    -99.57385505 </i>
   </energy>
  </scstep>
  <scstep>
   <time name="diag">    0.09    0.09</time>
   <time name="diis">    0.20    0.21</time>
   <time name="orth">    0.01    0.01</time>
   <time name="total">    0.52    0.52</time>
   <energy>
    <i name="alphaZ">      9.73354436 </i>
    <i name="ewald">   1845.24841226 </i>
    <i name="hartreedc">  -3722.04263606 </i>
    <i name="XCdc">    181.42992475 </i>
    <i name="pawpsdc">   4116.88498810 </i>
    <i name="pawaedc">  -4129.11726726 </i>
    <i name="eentropy">     -0.00000000 </i>
    <i name="bandstr">   -611.12329033 </i>
    <i name="atom">   2209.41246822 </i>
    <i name="e_fr_energy">    -99.57385596 </i>
    <i name="e_wo_entrp">    -99.57385596 </i>
    <i name="e_0_energy">    -99.57385596 </i>
   </energy>
  </scstep>
  <structure>
   <crystal>
    <varray name="basis" >
     <v>       7.75610000       0.00000000       0.00000000 </v>
     <v>       0.00000000      11.83610000       0.00000000 </v>
     <v>       0.00000000       0.00000000      11.23020000 </v>
    </varray>
    <i name="volume">   1030.95454200 </i>
    <varray name="rec_basis" >
     <v>       0.12893078       0.00000000       0.00000000 </v>
     <v>       0.00000000       0.08448729       0.00000000 </v>
     <v>       0.00000000       0.00000000       0.08904561 </v>
    </varray>
   </crystal>
   <varray name="positions" >
    <v>       0.49763387       0.71076833       0.53751113 </v>
    <v>       0.50056318       0.58433002       0.54267345 </v>
    <v>       0.50930302       0.52109179       0.43869020 </v>
    <v>       0.51262868       0.40306453       0.43559344 </v>
    <v>       0.50676806       0.34472050       0.54311740 </v>
    <v>       0.49796141       0.40521244       0.64924187 </v>
    <v>       0.49494220       0.52316619       0.64923692 </v>
    <v>       0.51545724       0.57535284       0.32967377 </v>
    <v>       0.61360304       0.74434719       0.49362951 </v>
    <v>       0.38641159       0.74181503       0.48633859 </v>
    <v>       0.49067966       0.74661667       0.62735366 </v>
    <v>       0.52422639       0.40178398       0.26645912 </v>
    <v>       0.50928655       0.25292039       0.54128615 </v>
    <v>       0.49338888       0.35958448       0.73331370 </v>
    <v>       0.48796128       0.56923925       0.73300645 </v>
    <v>       0.52134247       0.34580869       0.33010818 </v>
   </varray>
  </structure>
  <varray name="forces" >
   <v>      -0.00262916       0.15693056       0.03107606 </v>
   <v>       0.01218534      -0.01672588      -0.11661744 </v>
   <v>      -0.00535328      -0.02792215      -0.11624524 </v>
   <v>      -0.00136238       0.14381963      -0.10803339 </v>
   <v>      -0.00166744      -0.08248325       0.02951666 </v>
   <v>      -0.00519960       0.04072059       0.05202835 </v>
   <v>      -0.00148260      -0.06091505       0.11473333 </v>
   <v>       0.00720584      -0.02824090       0.00457364 </v>
   <v>       0.00104811       0.00121154      -0.00431878 </v>
   <v>      -0.00501528       0.00389354      -0.00656399 </v>
   <v>      -0.00240616       0.01836035       0.03118559 </v>
   <v>       0.00570894       0.01279448      -0.09593281 </v>
   <v>       0.00036102      -0.11177322       0.02412989 </v>
   <v>      -0.00310275      -0.03083460       0.06772812 </v>
   <v>      -0.00315486       0.04486306       0.07265676 </v>
   <v>       0.00486427      -0.06369871       0.02008324 </v>
  </varray>
  <varray name="stress" >
   <v>      -0.26730671      -0.09118243      -0.07838421 </v>
   <v>      -0.09118244       0.98606598       0.03764069 </v>
   <v>      -0.07838420       0.03764069       1.51171818 </v>
  </varray>
  <energy>
   <i name="e_fr_energy">    -99.57385596 </i>
   <i name="e_wo_entrp">    -99.57385596 </i>
   <i name="e_0_energy">    -99.57385596 </i>
  </energy>
  <time name="totalsc">    4.80    5.02</time>
 </calculation>
 <calculation>
  <scstep>
   <time name="diag">    0.08    0.08</time>
   <time name="diis">    0.28    0.28</time>
   <time name="orth">    0.01    0.01</time>
   <time name="total">    0.66    0.67</time>
   <energy>
    <i name="alphaZ">      9.73354436 </i>
    <i name="ewald">   1840.38705467 </i>
    <i name="hartreedc">  -3717.83547462 </i>
    <i name="XCdc">    181.38343654 </i>
    <i name="pawpsdc">   4116.59124297 </i>
    <i name="pawaedc">  -4128.82400866 </i>
    <i name="eentropy">     -0.00000000 </i>
    <i name="bandstr">   -610.42326978 </i>
    <i name="atom">   2209.41246822 </i>
    <i name="e_fr_energy">    -99.57500630 </i>
    <i name="e_wo_entrp">    -99.57500630 </i>
    <i name="e_0_energy">    -99.57500630 </i>
   </energy>
  </scstep>
  <scstep>
   <time name="diag">    0.07    0.07</time>
   <time name="diis">    0.31    0.32</time>
   <time name="orth">    0.01    0.01</time>
   <time name="total">    0.65    0.67</time>
   <energy>
    <i name="e_fr_energy">    -99.57555699 </i>
    <i name="e_wo_entrp">    -99.57555699 </i>
    <i name="e_0_energy">    -99.57555699 </i>
   </energy>
  </scstep>
  <scstep>
   <time name="diag">    0.08    0.08</time>
   <time name="diis">    0.31    0.31</time>
   <time name="orth">    0.00    0.00</time>
   <time name="total">    0.65    0.66</time>
   <energy>
    <i name="e_fr_energy">    -99.57561842 </i>
    <i name="e_wo_entrp">    -99.57561842 </i>
    <i name="e_0_energy">    -99.57561842 </i>
   </energy>
  </scstep>
  <scstep>
   <time name="diag">    0.08    0.08</time>
   <time name="diis">    0.28    0.28</time>
   <time name="orth">    0.00    0.00</time>
   <time name="total">    0.65    0.66</time>
   <energy>
    <i name="e_fr_energy">    -99.57559639 </i>
    <i name="e_wo_entrp">    -99.57559639 </i>
    <i name="e_0_energy">    -99.57559639 </i>
   </energy>
  </scstep>
  <scstep>
   <time name="diag">    0.09    0.09</time>
   <time name="diis">    0.30    0.31</time>
   <time name="orth">    0.00    0.00</time>
   <time name="total">    0.66    0.67</time>
   <energy>
    <i name="e_fr_energy">    -99.57559811 </i>
    <i name="e_wo_entrp">    -99.57559811 </i>
    <i name="e_0_energy">    -99.57559811 </i>
   </energy>
  </scstep>
  <scstep>
   <time name="diag">    0.06    0.06</time>
   <time name="diis">    0.24    0.24</time>
   <time name="orth">    0.01    0.01</time>
   <time name="total">    0.51    0.52</time>
   <energy>
    <i name="alphaZ">      9.73354436 </i>
    <i name="ewald">   1840.38705467 </i>
    <i name="hartreedc">  -3717.34665235 </i>
    <i name="XCdc">    181.36542780 </i>
    <i name="pawpsdc">   4105.02204656 </i>
    <i name="pawaedc">  -4117.24706622 </i>
    <i name="eentropy">     -0.00000000 </i>
    <i name="bandstr">   -610.90241940 </i>
    <i name="atom">   2209.41246822 </i>
    <i name="e_fr_energy">    -99.57559636 </i>
    <i name="e_wo_entrp">    -99.57559636 </i>
    <i name="e_0_energy">    -99.57559636 </i>
   </energy>
  </scstep>
  <structure>
   <crystal>
    <varray name="basis" >
     <v>       7.75610000       0.00000000       0.00000000 </v>
     <v>       0.00000000      11.83610000       0.00000000 </v>
     <v>       0.00000000       0.00000000      11.23020000 </v>
    </varray>
    <i name="volume">   1030.95454200 </i>
    <varray name="rec_basis" >
     <v>       0.12893078       0.00000000       0.00000000 </v>
     <v>       0.00000000       0.08448729       0.00000000 </v>
     <v>       0.00000000       0.00000000       0.08904561 </v>
    </varray>
   </crystal>
   <varray name="positions" >
    <v>       0.49762128       0.71106644       0.53757676 </v>
    <v>       0.50057923       0.58439014       0.54257196 </v>
    <v>       0.50928131       0.52113961       0.43843402 </v>
    <v>       0.51262963       0.40317898       0.43541130 </v>
    <v>       0.50675985       0.34449651       0.54322359 </v>
    <v>       0.49794603       0.40525049       0.64938955 </v>
    <v>       0.49494522       0.52313106       0.64947943 </v>
    <v>       0.51549561       0.57536406       0.32947553 </v>
    <v>       0.61366010       0.74436056       0.49359620 </v>
    <v>       0.38634694       0.74183240       0.48629777 </v>
    <v>       0.49066898       0.74665532       0.62747022 </v>
    <v>       0.52424553       0.40175731       0.26626212 </v>
    <v>       0.50928927       0.25265167       0.54133199 </v>
    <v>       0.49337673       0.35949344       0.73350256 </v>
    <v>       0.48794726       0.56935753       0.73320586 </v>
    <v>       0.52136457       0.34569681       0.33000467 </v>
   </varray>
  </structure>
  <varray name="forces" >
   <v>       0.00503934       0.02518848       0.00227794 </v>
   <v>       0.00610303      -0.04709784      -0.02830575 </v>
   <v>      -0.00533408       0.01081091      -0.00118378 </v>
   <v>      -0.00346744      -0.04685608       0.04102052 </v>
   <v>       0.00139687       0.08800530      -0.06068461 </v>
   <v>      -0.00720001      -0.06840823       0.02306838 </v>
   <v>       0.00160970       0.06068434      -0.05569057 </v>
   <v>       0.00528531      -0.02195490      -0.01294441 </v>
   <v>       0.00231585       0.02074161      -0.00034559 </v>
   <v>      -0.00513850       0.02157114      -0.00103665 </v>
   <v>      -0.00326804       0.03514728       0.04027216 </v>
   <v>       0.00442946      -0.03684503      -0.05393885 </v>
   <v>      -0.00031891      -0.08436282       0.02524040 </v>
   <v>      -0.00245991      -0.00849104       0.04011380 </v>
   <v>      -0.00190581       0.03216145       0.05635573 </v>
   <v>       0.00291313       0.01970542      -0.01421873 </v>
  </varray>
  <varray name="stress" >
   <v>      -0.27405398      -0.08338983      -0.05643178 </v>
   <v>      -0.08338985       0.50898239       0.21646713 </v>
   <v>      -0.05643178       0.21646713       0.59942267 </v>
  </varray>
  <energy>
   <i name="e_fr_energy">    -99.57559636 </i>
   <i name="e_wo_entrp">    -99.57559636 </i>
   <i name="e_0_energy">    -99.57559636 </i>
  </energy>
  <time name="totalsc">    4.98    5.19</time>
 </calculation>
 <calculation>
  <scstep>
   <time name="diag">    0.09    0.09</time>
   <time name="diis">    0.26    0.27</time>
   <time name="orth">    0.00    0.00</time>
   <time name="total">    0.64    0.65</time>
   <energy>
    <i name="alphaZ">      9.73354436 </i>
    <i name="ewald">   1839.96693594 </i>
    <i name="hartreedc">  -3716.98871695 </i>
    <i name="XCdc">    181.36197323 </i>
    <i name="pawpsdc">   4104.47680999 </i>
    <i name="pawaedc">  -4116.70254867 </i>
    <i name="eentropy">     -0.00000000 </i>
    <i name="bandstr">   -610.83607628 </i>
    <i name="atom">   2209.41246822 </i>
    <i name="e_fr_energy">    -99.57561016 </i>
    <i name="e_wo_entrp">    -99.57561016 </i>
    <i name="e_0_energy">    -99.57561016 </i>
   </energy>
  </scstep>
  <scstep>
   <time name="diag">    0.08    0.08</time>
   <time name="diis">    0.27    0.27</time>
   <time name="orth">    0.00    0.00</time>
   <time name="total">    0.64    0.65</time>
   <energy>
    <i name="e_fr_energy">    -99.57561556 </i>
    <i name="e_wo_entrp">    -99.57561556 </i>
    <i name="e_0_energy">    -99.57561556 </i>
   </energy>
  </scstep>
  <scstep>
   <time name="diag">    0.05    0.05</time>
   <time name="diis">    0.22    0.22</time>
   <time name="orth">    0.01    0.01</time>
   <time name="total">    0.57    0.58</time>
   <energy>
    <i name="e_fr_energy">    -99.57561664 </i>
    <i name="e_wo_entrp">    -99.57561664 </i>
    <i name="e_0_energy">    -99.57561664 </i>
   </energy>
  </scstep>
  <scstep>
   <time name="diag">    0.08    0.08</time>
   <time name="diis">    0.23    0.24</time>
   <time name="orth">    0.00    0.00</time>
   <time name="total">    0.60    0.61</time>
   <energy>
    <i name="e_fr_energy">    -99.57561728 </i>
    <i name="e_wo_entrp">    -99.57561728 </i>
    <i name="e_0_energy">    -99.57561728 </i>
   </energy>
  </scstep>
  <scstep>
   <time name="diag">    0.06    0.07</time>
   <time name="diis">    0.19    0.19</time>
   <time name="orth">    0.00    0.00</time>
   <time name="total">    0.50    0.51</time>
   <energy>
    <i name="e_fr_energy">    -99.57561798 </i>
    <i name="e_wo_entrp">    -99.57561798 </i>
    <i name="e_0_energy">    -99.57561798 </i>
   </energy>
  </scstep>
  <scstep>
   <time name="diag">    0.07    0.07</time>
   <time name="diis">    0.15    0.16</time>
   <time name="orth">    0.00    0.00</time>
   <time name="total">    0.39    0.40</time>
   <energy>
    <i name="alphaZ">      9.73354436 </i>
    <i name="ewald">   1839.96693594 </i>
    <i name="hartreedc">  -3716.93794917 </i>
    <i name="XCdc">    181.36043957 </i>
    <i name="pawpsdc">   4102.90788136 </i>
    <i name="pawaedc">  -4115.13342459 </i>
    <i name="eentropy">     -0.00000000 </i>
    <i name="bandstr">   -610.88551429 </i>
    <i name="atom">   2209.41246822 </i>
    <i name="e_fr_energy">    -99.57561860 </i>
    <i name="e_wo_entrp">    -99.57561860 </i>
    <i name="e_0_energy">    -99.57561860 </i>
   </energy>
  </scstep>
  <structure>
   <crystal>
    <varray name="basis" >
     <v>       7.75610000       0.00000000       0.00000000 </v>
     <v>       0.00000000      11.83610000       0.00000000 </v>
     <v>       0.00000000       0.00000000      11.23020000 </v>
    </varray>
    <i name="volume">   1030.95454200 </i>
    <varray name="rec_basis" >
     <v>       0.12893078       0.00000000       0.00000000 </v>
     <v>       0.00000000       0.08448729       0.00000000 </v>
     <v>       0.00000000       0.00000000       0.08904561 </v>
    </varray>
   </crystal>
   <varray name="positions" >
    <v>       0.49762019       0.71109225       0.53758244 </v>
    <v>       0.50058062       0.58439534       0.54256318 </v>
    <v>       0.50927943       0.52114375       0.43841185 </v>
    <v>       0.51262971       0.40318889       0.43539554 </v>
    <v>       0.50675913       0.34447713       0.54323278 </v>
    <v>       0.49794470       0.40525378       0.64940233 </v>
    <v>       0.49494548       0.52312802       0.64950042 </v>
    <v>       0.51549893       0.57536503       0.32945837 </v>
    <v>       0.61366504       0.74436171       0.49359331 </v>
    <v>       0.38634135       0.74183391       0.48629423 </v>
    <v>       0.49066806       0.74665866       0.62748031 </v>
    <v>       0.52424719       0.40175500       0.26624507 </v>
    <v>       0.50928951       0.25262841       0.54133596 </v>
    <v>       0.49337568       0.35948556       0.73351891 </v>
    <v>       0.48794605       0.56936776       0.73322312 </v>
    <v>       0.52136648       0.34568712       0.32999571 </v>
   </varray>
  </structure>
  <varray name="forces" >
   <v>       0.00801316       0.01246816      -0.00063033 </v>
   <v>       0.00510668      -0.04802349      -0.02089223 </v>
   <v>      -0.00608415       0.01415222       0.00494561 </v>
   <v>      -0.00436545      -0.06106690       0.05093170 </v>
   <v>       0.00092163       0.09918526      -0.06656323 </v>
   <v>      -0.00753524      -0.07824721       0.02370233 </v>
   <v>       0.00137892       0.06951585      -0.06531384 </v>
   <v>       0.00525323      -0.01862602      -0.02061059 </v>
   <v>       0.00166681       0.02232263       0.00097559 </v>
   <v>      -0.00546874       0.02299844       0.00043192 </v>
   <v>      -0.00384997       0.03645506       0.04175333 </v>
   <v>       0.00383657      -0.04151468      -0.04998783 </v>
   <v>      -0.00090456      -0.08276149       0.02618933 </v>
   <v>      -0.00295426      -0.00685701       0.03879301 </v>
   <v>      -0.00234049       0.03112808       0.05606233 </v>
   <v>       0.00732586       0.02887110      -0.01978709 </v>
  </varray>
  <varray name="stress" >
   <v>      -0.29572667      -0.08696112      -0.05387244 </v>
   <v>      -0.08696114       0.44819418       0.23216127 </v>
   <v>      -0.05387245       0.23216125       0.51370374 </v>
  </varray>
  <energy>
   <i name="e_fr_energy">    -99.57561860 </i>
   <i name="e_wo_entrp">    -99.57561860 </i>
   <i name="e_0_energy">    -99.57561860 </i>
  </energy>
  <time name="totalsc">    4.59    4.76</time>
 </calculation>
 <calculation>
  <scstep>
   <time name="diag">    0.08    0.08</time>
   <time name="diis">    0.31    0.31</time>
   <time name="orth">    0.00    0.00</time>
   <time name="total">    0.65    0.66</time>
   <energy>
    <i name="alphaZ">      9.73354436 </i>
    <i name="ewald">   1837.47263488 </i>
    <i name="hartreedc">  -3714.84098710 </i>
    <i name="XCdc">    181.33094431 </i>
    <i name="pawpsdc">   4102.85407005 </i>
    <i name="pawaedc">  -4115.07964958 </i>
    <i name="eentropy">     -0.00000000 </i>
    <i name="bandstr">   -610.45895480 </i>
    <i name="atom">   2209.41246822 </i>
    <i name="e_fr_energy">    -99.57592966 </i>
    <i name="e_wo_entrp">    -99.57592966 </i>
    <i name="e_0_energy">    -99.57592966 </i>
   </energy>
  </scstep>
  <scstep>
   <time name="diag">    0.09    0.09</time>
   <time name="diis">    0.27    0.28</time>
   <time name="orth">    0.01    0.01</time>
   <time name="total">    0.64    0.65</time>
   <energy>
    <i name="e_fr_energy">    -99.57613280 </i>
    <i name="e_wo_entrp">    -99.57613280 </i>
    <i name="e_0_energy">    -99.57613280 </i>
   </energy>
  </scstep>
  <scstep>
   <time name="diag">    0.07    0.07</time>
   <time name="diis">    0.32    0.33</time>
   <time name="orth">    0.01    0.01</time>
   <time name="total">    0.68    0.69</time>
   <energy>
    <i name="e_fr_energy">    -99.57616100 </i>
    <i name="e_wo_entrp">    -99.57616100 </i>
    <i name="e_0_energy">    -99.57616100 </i>
   </energy>
  </scstep>
  <scstep>
   <time name="diag">    0.07    0.07</time>
   <time name="diis">    0.28    0.28</time>
   <time name="orth">    0.00    0.00</time>
   <time name="total">    0.59    0.60</time>
   <energy>
[...]
        <r>  0.0008  0.0000  0.0000  0.0000  0.0000  0.0000  0.0000  0.0000  0.0000 </r>
        <r>  0.0000  0.0000  0.0000  0.0000  0.0000  0.0000  0.0000  0.0000  0.0000 </r>
        <r>  0.0000  0.0000  0.0000  0.0032  0.0000  0.0000  0.0000  0.0000  0.0000 </r>
        <r>  0.0000  0.0000  0.0000  0.0006  0.0000  0.0000  0.0000  0.0000  0.0000 </r>
        <r>  0.0000  0.0000  0.0000  0.0005  0.0000  0.0000  0.0000  0.0000  0.0000 </r>
        <r>  0.0000  0.0000  0.0000  0.0019  0.0000  0.0000  0.0000  0.0000  0.0000 </r>
        <r>  0.0000  0.0001  0.0004  0.1649  0.0000  0.0000  0.0000  0.0000  0.0000 </r>
       </set>
       <set comment="band 25">
        <r>  0.0000  0.0000  0.0000  0.0000  0.0000  0.0000  0.0000  0.0000  0.0000 </r>
        <r>  0.0000  0.0000  0.0003  0.1398  0.0000  0.0000  0.0000  0.0000  0.0000 </r>
        <r>  0.0000  0.0000  0.0002  0.0788  0.0000  0.0000  0.0000  0.0000  0.0000 </r>
        <r>  0.0000  0.0000  0.0000  0.0124  0.0000  0.0000  0.0000  0.0000  0.0000 </r>
        <r>  0.0000  0.0000  0.0003  0.1300  0.0000  0.0000  0.0000  0.0000  0.0000 </r>
        <r>  0.0000  0.0000  0.0002  0.0699  0.0000  0.0000  0.0000  0.0000  0.0000 </r>
        <r>  0.0000  0.0000  0.0000  0.0070  0.0000  0.0000  0.0000  0.0000  0.0000 </r>
        <r>  0.0000  0.0000  0.0000  0.0162  0.0000  0.0000  0.0000  0.0000  0.0000 </r>
        <r>  0.0095  0.0002  0.0000  0.0000  0.0000  0.0000  0.0000  0.0000  0.0000 </r>
        <r>  0.0095  0.0002  0.0000  0.0000  0.0000  0.0000  0.0000  0.0000  0.0000 </r>
        <r>  0.0000  0.0000  0.0000  0.0000  0.0000  0.0000  0.0000  0.0000  0.0000 </r>
        <r>  0.0000  0.0000  0.0000  0.0000  0.0000  0.0000  0.0000  0.0000  0.0000 </r>
        <r>  0.0000  0.0000  0.0000  0.0044  0.0000  0.0000  0.0000  0.0000  0.0000 </r>
        <r>  0.0000  0.0000  0.0000  0.0022  0.0000  0.0000  0.0000  0.0000  0.0000 </r>
        <r>  0.0000  0.0000  0.0000  0.0002  0.0000  0.0000  0.0000  0.0000  0.0000 </r>
        <r>  0.0000  0.0000  0.0000  0.0029  0.0000  0.0000  0.0000  0.0000  0.0000 </r>
       </set>
       <set comment="band 26">
        <r>  0.0112  0.0006  0.0001  0.0000  0.0000  0.0000  0.0000  0.0000  0.0000 </r>
        <r>  0.0002  0.0007  0.0002  0.0000  0.0000  0.0000  0.0000  0.0000  0.0000 </r>
        <r>  0.0001  0.0029  0.0092  0.0000  0.0000  0.0000  0.0000  0.0000  0.0000 </r>
        <r>  0.0000  0.0021  0.0029  0.0000  0.0000  0.0000  0.0000  0.0000  0.0000 </r>
        <r>  0.0012  0.0008  0.0000  0.0000  0.0000  0.0000  0.0000  0.0000  0.0000 </r>
        <r>  0.0000  0.0002  0.0023  0.0000  0.0000  0.0000  0.0000  0.0000  0.0000 </r>
        <r>  0.0006  0.0001  0.0025  0.0000  0.0000  0.0000  0.0000  0.0000  0.0000 </r>
        <r>  0.0081  0.0026  0.0009  0.0000  0.0000  0.0000  0.0000  0.0000  0.0000 </r>
        <r>  0.0000  0.0000  0.0002  0.0008  0.0000  0.0000  0.0000  0.0000  0.0000 </r>
        <r>  0.0000  0.0000  0.0003  0.0008  0.0000  0.0000  0.0000  0.0000  0.0000 </r>
        <r>  0.0001  0.0001  0.0007  0.0000  0.0000  0.0000  0.0000  0.0000  0.0000 </r>
        <r>  0.0024  0.0020  0.0033  0.0000  0.0000  0.0000  0.0000  0.0000  0.0000 </r>
        <r>  0.0011  0.0003  0.0000  0.0000  0.0000  0.0000  0.0000  0.0000  0.0000 </r>
        <r>  0.0002  0.0001  0.0002  0.0000  0.0000  0.0000  0.0000  0.0000  0.0000 </r>
        <r>  0.0007  0.0003  0.0003  0.0000  0.0000  0.0000  0.0000  0.0000  0.0000 </r>
        <r>  0.0105  0.0069  0.0018  0.0000  0.0000  0.0000  0.0000  0.0000  0.0000 </r>
       </set>
       <set comment="band 27">
        <r>  0.0000  0.0000  0.0000  0.0002  0.0000  0.0000  0.0000  0.0000  0.0000 </r>
        <r>  0.0000  0.0000  0.0000  0.0184  0.0000  0.0000  0.0000  0.0000  0.0000 </r>
        <r>  0.0000  0.0000  0.0001  0.0606  0.0000  0.0000  0.0000  0.0000  0.0000 </r>
        <r>  0.0000  0.0000  0.0003  0.1452  0.0000  0.0000  0.0000  0.0000  0.0000 </r>
        <r>  0.0000  0.0000  0.0000  0.0024  0.0000  0.0000  0.0000  0.0000  0.0000 </r>
        <r>  0.0000  0.0000  0.0002  0.0823  0.0000  0.0000  0.0000  0.0000  0.0000 </r>
        <r>  0.0000  0.0000  0.0003  0.1324  0.0000  0.0000  0.0000  0.0000  0.0000 </r>
        <r>  0.0000  0.0000  0.0000  0.0114  0.0000  0.0000  0.0000  0.0000  0.0000 </r>
        <r>  0.0004  0.0000  0.0000  0.0000  0.0000  0.0000  0.0000  0.0000  0.0000 </r>
        <r>  0.0004  0.0001  0.0000  0.0000  0.0000  0.0000  0.0000  0.0000  0.0000 </r>
        <r>  0.0000  0.0000  0.0000  0.0001  0.0000  0.0000  0.0000  0.0000  0.0000 </r>
        <r>  0.0000  0.0000  0.0000  0.0011  0.0000  0.0000  0.0000  0.0000  0.0000 </r>
        <r>  0.0000  0.0000  0.0000  0.0002  0.0000  0.0000  0.0000  0.0000  0.0000 </r>
        <r>  0.0000  0.0000  0.0000  0.0028  0.0000  0.0000  0.0000  0.0000  0.0000 </r>
        <r>  0.0000  0.0000  0.0000  0.0047  0.0000  0.0000  0.0000  0.0000  0.0000 </r>
        <r>  0.0000  0.0000  0.0001  0.0380  0.0000  0.0000  0.0000  0.0000  0.0000 </r>
       </set>
       <set comment="band 28">
        <r>  0.0003  0.0080  0.0022  0.0000  0.0000  0.0000  0.0000  0.0000  0.0000 </r>
        <r>  0.0000  0.0000  0.0004  0.0000  0.0000  0.0000  0.0000  0.0000  0.0000 </r>
        <r>  0.0061  0.0050  0.0099  0.0000  0.0000  0.0000  0.0000  0.0000  0.0000 </r>
        <r>  0.0004  0.0046  0.0048  0.0000  0.0000  0.0000  0.0000  0.0000  0.0000 </r>
        <r>  0.0019  0.0038  0.0001  0.0000  0.0000  0.0000  0.0000  0.0000  0.0000 </r>
        <r>  0.0056  0.0031  0.0019  0.0000  0.0000  0.0000  0.0000  0.0000  0.0000 </r>
        <r>  0.0048  0.0024  0.0010  0.0000  0.0000  0.0000  0.0000  0.0000  0.0000 </r>
        <r>  0.0098  0.0090  0.0047  0.0000  0.0000  0.0000  0.0000  0.0000  0.0000 </r>
        <r>  0.0000  0.0000  0.0000  0.0001  0.0000  0.0000  0.0000  0.0000  0.0000 </r>
        <r>  0.0000  0.0000  0.0000  0.0001  0.0000  0.0000  0.0000  0.0000  0.0000 </r>
        <r>  0.0008  0.0000  0.0011  0.0000  0.0000  0.0000  0.0000  0.0000  0.0000 </r>
        <r>  0.0041  0.0020  0.0048  0.0000  0.0000  0.0000  0.0000  0.0000  0.0000 </r>
        <r>  0.0031  0.0013  0.0001  0.0000  0.0000  0.0000  0.0000  0.0000  0.0000 </r>
        <r>  0.0005  0.0004  0.0014  0.0000  0.0000  0.0000  0.0000  0.0000  0.0000 </r>
        <r>  0.0006  0.0002  0.0012  0.0000  0.0000  0.0000  0.0000  0.0000  0.0000 </r>
        <r>  0.0127  0.0162  0.0003  0.0000  0.0000  0.0000  0.0000  0.0000  0.0000 </r>
       </set>
       <set comment="band 29">
        <r>  0.0214  0.0012  0.0014  0.0000  0.0000  0.0000  0.0000  0.0000  0.0000 </r>
        <r>  0.0001  0.0015  0.0001  0.0000  0.0000  0.0000  0.0000  0.0000  0.0000 </r>
        <r>  0.0008  0.0004  0.0019  0.0000  0.0000  0.0000  0.0000  0.0000  0.0000 </r>
        <r>  0.0000  0.0000  0.0003  0.0000  0.0000  0.0000  0.0000  0.0000  0.0000 </r>
        <r>  0.0008  0.0005  0.0008  0.0000  0.0000  0.0000  0.0000  0.0000  0.0000 </r>
        <r>  0.0050  0.0007  0.0068  0.0000  0.0000  0.0000  0.0000  0.0000  0.0000 </r>
        <r>  0.0001  0.0003  0.0014  0.0000  0.0000  0.0000  0.0000  0.0000  0.0000 </r>
        <r>  0.0008  0.0003  0.0047  0.0000  0.0000  0.0000  0.0000  0.0000  0.0000 </r>
        <r>  0.0001  0.0003  0.0003  0.0022  0.0000  0.0000  0.0000  0.0000  0.0000 </r>
        <r>  0.0001  0.0002  0.0004  0.0020  0.0000  0.0000  0.0000  0.0000  0.0000 </r>
        <r>  0.0000  0.0001  0.0009  0.0000  0.0000  0.0000  0.0000  0.0000  0.0000 </r>
        <r>  0.0008  0.0008  0.0013  0.0000  0.0000  0.0000  0.0000  0.0000  0.0000 </r>
        <r>  0.0002  0.0002  0.0000  0.0000  0.0000  0.0000  0.0000  0.0000  0.0000 </r>
        <r>  0.0000  0.0006  0.0019  0.0000  0.0000  0.0000  0.0000  0.0000  0.0000 </r>
        <r>  0.0012  0.0000  0.0005  0.0000  0.0000  0.0000  0.0000  0.0000  0.0000 </r>
        <r>  0.0017  0.0002  0.0061  0.0000  0.0000  0.0000  0.0000  0.0000  0.0000 </r>
       </set>
       <set comment="band 30">
        <r>  0.0003  0.0010  0.0018  0.0000  0.0000  0.0000  0.0000  0.0000  0.0000 </r>
        <r>  0.0004  0.0013  0.0004  0.0000  0.0000  0.0000  0.0000  0.0000  0.0000 </r>
        <r>  0.0000  0.0016  0.0002  0.0000  0.0000  0.0000  0.0000  0.0000  0.0000 </r>
        <r>  0.0005  0.0001  0.0000  0.0000  0.0000  0.0000  0.0000  0.0000  0.0000 </r>
        <r>  0.0036  0.0084  0.0002  0.0000  0.0000  0.0000  0.0000  0.0000  0.0000 </r>
        <r>  0.0001  0.0002  0.0001  0.0000  0.0000  0.0000  0.0000  0.0000  0.0000 </r>
        <r>  0.0049  0.0030  0.0087  0.0000  0.0000  0.0000  0.0000  0.0000  0.0000 </r>
        <r>  0.0000  0.0001  0.0002  0.0000  0.0000  0.0000  0.0000  0.0000  0.0000 </r>
        <r>  0.0003  0.0002  0.0000  0.0000  0.0000  0.0000  0.0000  0.0000  0.0000 </r>
        <r>  0.0003  0.0002  0.0000  0.0000  0.0000  0.0000  0.0000  0.0000  0.0000 </r>
        <r>  0.0000  0.0000  0.0008  0.0000  0.0000  0.0000  0.0000  0.0000  0.0000 </r>
        <r>  0.0003  0.0001  0.0000  0.0000  0.0000  0.0000  0.0000  0.0000  0.0000 </r>
        <r>  0.0006  0.0026  0.0000  0.0000  0.0000  0.0000  0.0000  0.0000  0.0000 </r>
        <r>  0.0001  0.0001  0.0001  0.0000  0.0000  0.0000  0.0000  0.0000  0.0000 </r>
        <r>  0.0003  0.0008  0.0027  0.0000  0.0000  0.0000  0.0000  0.0000  0.0000 </r>
        <r>  0.0023  0.0006  0.0001  0.0000  0.0000  0.0000  0.0000  0.0000  0.0000 </r>
       </set>
       <set comment="band 31">
        <r>  0.0003  0.0009  0.0018  0.0000  0.0000  0.0000  0.0000  0.0000  0.0000 </r>
        <r>  0.0024  0.0001  0.0000  0.0000  0.0000  0.0000  0.0000  0.0000  0.0000 </r>
        <r>  0.0009  0.0002  0.0001  0.0000  0.0000  0.0000  0.0000  0.0000  0.0000 </r>
        <r>  0.0015  0.0000  0.0000  0.0000  0.0000  0.0000  0.0000  0.0000  0.0000 </r>
        <r>  0.0011  0.0001  0.0000  0.0000  0.0000  0.0000  0.0000  0.0000  0.0000 </r>
        <r>  0.0032  0.0000  0.0000  0.0000  0.0000  0.0000  0.0000  0.0000  0.0000 </r>
        <r>  0.0005  0.0001  0.0009  0.0000  0.0000  0.0000  0.0000  0.0000  0.0000 </r>
        <r>  0.0002  0.0000  0.0003  0.0000  0.0000  0.0000  0.0000  0.0000  0.0000 </r>
        <r>  0.0003  0.0000  0.0001  0.0001  0.0000  0.0000  0.0000  0.0000  0.0000 </r>
        <r>  0.0002  0.0001  0.0001  0.0001  0.0000  0.0000  0.0000  0.0000  0.0000 </r>
        <r>  0.0001  0.0002  0.0005  0.0000  0.0000  0.0000  0.0000  0.0000  0.0000 </r>
        <r>  0.0007  0.0003  0.0006  0.0000  0.0000  0.0000  0.0000  0.0000  0.0000 </r>
        <r>  0.0004  0.0001  0.0000  0.0000  0.0000  0.0000  0.0000  0.0000  0.0000 </r>
        <r>  0.0005  0.0001  0.0002  0.0000  0.0000  0.0000  0.0000  0.0000  0.0000 </r>
        <r>  0.0003  0.0001  0.0000  0.0000  0.0000  0.0000  0.0000  0.0000  0.0000 </r>
        <r>  0.0004  0.0008  0.0013  0.0000  0.0000  0.0000  0.0000  0.0000  0.0000 </r>
       </set>
       <set comment="band 32">
        <r>  0.0011  0.0005  0.0270  0.0000  0.0000  0.0000  0.0000  0.0000  0.0000 </r>
        <r>  0.0001  0.0003  0.0003  0.0000  0.0000  0.0000  0.0000  0.0000  0.0000 </r>
        <r>  0.0002  0.0015  0.0076  0.0000  0.0000  0.0000  0.0000  0.0000  0.0000 </r>
        <r>  0.0021  0.0011  0.0031  0.0000  0.0000  0.0000  0.0000  0.0000  0.0000 </r>
        <r>  0.0009  0.0000  0.0002  0.0000  0.0000  0.0000  0.0000  0.0000  0.0000 </r>
        <r>  0.0036  0.0009  0.0005  0.0000  0.0000  0.0000  0.0000  0.0000  0.0000 </r>
        <r>  0.0006  0.0003  0.0025  0.0000  0.0000  0.0000  0.0000  0.0000  0.0000 </r>
        <r>  0.0009  0.0068  0.0046  0.0000  0.0000  0.0000  0.0000  0.0000  0.0000 </r>
        <r>  0.0000  0.0001  0.0000  0.0006  0.0000  0.0000  0.0000  0.0000  0.0000 </r>
        <r>  0.0000  0.0001  0.0000  0.0008  0.0000  0.0000  0.0000  0.0000  0.0000 </r>
        <r>  0.0001  0.0017  0.0028  0.0000  0.0000  0.0000  0.0000  0.0000  0.0000 </r>
        <r>  0.0024  0.0006  0.0020  0.0000  0.0000  0.0000  0.0000  0.0000  0.0000 </r>
        <r>  0.0017  0.0000  0.0001  0.0000  0.0000  0.0000  0.0000  0.0000  0.0000 </r>
        <r>  0.0001  0.0000  0.0010  0.0000  0.0000  0.0000  0.0000  0.0000  0.0000 </r>
        <r>  0.0003  0.0005  0.0000  0.0000  0.0000  0.0000  0.0000  0.0000  0.0000 </r>
        <r>  0.0082  0.0078  0.0005  0.0000  0.0000  0.0000  0.0000  0.0000  0.0000 </r>
       </set>
       <set comment="band 33">
        <r>  0.0015  0.0014  0.0011  0.0000  0.0000  0.0000  0.0000  0.0000  0.0000 </r>
        <r>  0.0005  0.0017  0.0000  0.0000  0.0000  0.0000  0.0000  0.0000  0.0000 </r>
        <r>  0.0057  0.0038  0.0112  0.0000  0.0000  0.0000  0.0000  0.0000  0.0000 </r>
        <r>  0.0001  0.0008  0.0000  0.0000  0.0000  0.0000  0.0000  0.0000  0.0000 </r>
        <r>  0.0043  0.0007  0.0002  0.0000  0.0000  0.0000  0.0000  0.0000  0.0000 </r>
        <r>  0.0025  0.0011  0.0016  0.0000  0.0000  0.0000  0.0000  0.0000  0.0000 </r>
        <r>  0.0111  0.0005  0.0029  0.0000  0.0000  0.0000  0.0000  0.0000  0.0000 </r>
        <r>  0.0055  0.0010  0.0107  0.0000  0.0000  0.0000  0.0000  0.0000  0.0000 </r>
        <r>  0.0000  0.0000  0.0000  0.0001  0.0000  0.0000  0.0000  0.0000  0.0000 </r>
        <r>  0.0000  0.0000  0.0000  0.0001  0.0000  0.0000  0.0000  0.0000  0.0000 </r>
        <r>  0.0005  0.0001  0.0001  0.0000  0.0000  0.0000  0.0000  0.0000  0.0000 </r>
        <r>  0.0002  0.0000  0.0000  0.0000  0.0000  0.0000  0.0000  0.0000  0.0000 </r>
        <r>  0.0008  0.0009  0.0003  0.0000  0.0000  0.0000  0.0000  0.0000  0.0000 </r>
        <r>  0.0005  0.0009  0.0007  0.0000  0.0000  0.0000  0.0000  0.0000  0.0000 </r>
        <r>  0.0012  0.0007  0.0024  0.0000  0.0000  0.0000  0.0000  0.0000  0.0000 </r>
        <r>  0.0012  0.0053  0.0013  0.0000  0.0000  0.0000  0.0000  0.0000  0.0000 </r>
       </set>
       <set comment="band 34">
        <r>  0.0016  0.0043  0.0007  0.0000  0.0000  0.0000  0.0000  0.0000  0.0000 </r>
        <r>  0.0001  0.0001  0.0001  0.0000  0.0000  0.0000  0.0000  0.0000  0.0000 </r>
        <r>  0.0002  0.0003  0.0004  0.0000  0.0000  0.0000  0.0000  0.0000  0.0000 </r>
        <r>  0.0001  0.0000  0.0016  0.0000  0.0000  0.0000  0.0000  0.0000  0.0000 </r>
        <r>  0.0029  0.0068  0.0001  0.0000  0.0000  0.0000  0.0000  0.0000  0.0000 </r>
        <r>  0.0007  0.0012  0.0046  0.0000  0.0000  0.0000  0.0000  0.0000  0.0000 </r>
        <r>  0.0003  0.0003  0.0004  0.0000  0.0000  0.0000  0.0000  0.0000  0.0000 </r>
        <r>  0.0006  0.0000  0.0038  0.0000  0.0000  0.0000  0.0000  0.0000  0.0000 </r>
        <r>  0.0000  0.0000  0.0001  0.0006  0.0000  0.0000  0.0000  0.0000  0.0000 </r>
        <r>  0.0000  0.0000  0.0001  0.0004  0.0000  0.0000  0.0000  0.0000  0.0000 </r>
        <r>  0.0000  0.0000  0.0001  0.0000  0.0000  0.0000  0.0000  0.0000  0.0000 </r>
        <r>  0.0032  0.0018  0.0016  0.0000  0.0000  0.0000  0.0000  0.0000  0.0000 </r>
        <r>  0.0020  0.0023  0.0000  0.0000  0.0000  0.0000  0.0000  0.0000  0.0000 </r>
        <r>  0.0012  0.0004  0.0009  0.0000  0.0000  0.0000  0.0000  0.0000  0.0000 </r>
        <r>  0.0011  0.0000  0.0002  0.0000  0.0000  0.0000  0.0000  0.0000  0.0000 </r>
        <r>  0.0000  0.0028  0.0106  0.0000  0.0000  0.0000  0.0000  0.0000  0.0000 </r>
       </set>
       <set comment="band 35">
        <r>  0.0041  0.0005  0.0013  0.0007  0.0000  0.0000  0.0000  0.0000  0.0000 </r>
        <r>  0.0014  0.0001  0.0001  0.0000  0.0000  0.0000  0.0000  0.0000  0.0000 </r>
        <r>  0.0001  0.0016  0.0017  0.0000  0.0000  0.0000  0.0000  0.0000  0.0000 </r>
        <r>  0.0010  0.0000  0.0018  0.0001  0.0000  0.0000  0.0000  0.0000  0.0000 </r>
        <r>  0.0040  0.0048  0.0010  0.0000  0.0000  0.0000  0.0000  0.0000  0.0000 </r>
        <r>  0.0001  0.0001  0.0000  0.0005  0.0000  0.0000  0.0000  0.0000  0.0000 </r>
        <r>  0.0003  0.0004  0.0012  0.0000  0.0000  0.0000  0.0000  0.0000  0.0000 </r>
        <r>  0.0031  0.0006  0.0001  0.0001  0.0000  0.0000  0.0000  0.0000  0.0000 </r>
        <r>  0.0004  0.0003  0.0000  0.0015  0.0000  0.0000  0.0000  0.0000  0.0000 </r>
        <r>  0.0005  0.0001  0.0001  0.0008  0.0000  0.0000  0.0000  0.0000  0.0000 </r>
        <r>  0.0019  0.0000  0.0000  0.0000  0.0000  0.0000  0.0000  0.0000  0.0000 </r>
        <r>  0.0003  0.0001  0.0009  0.0000  0.0000  0.0000  0.0000  0.0000  0.0000 </r>
        <r>  0.0000  0.0019  0.0000  0.0000  0.0000  0.0000  0.0000  0.0000  0.0000 </r>
        <r>  0.0005  0.0001  0.0000  0.0000  0.0000  0.0000  0.0000  0.0000  0.0000 </r>
        <r>  0.0004  0.0001  0.0000  0.0000  0.0000  0.0000  0.0000  0.0000  0.0000 </r>
        <r>  0.0014  0.0001  0.0011  0.0000  0.0000  0.0000  0.0000  0.0000  0.0000 </r>
       </set>
       <set comment="band 36">
        <r>  0.0003  0.0001  0.0000  0.0269  0.0000  0.0000  0.0000  0.0000  0.0000 </r>
        <r>  0.0000  0.0000  0.0000  0.0043  0.0000  0.0000  0.0000  0.0000  0.0000 </r>
        <r>  0.0000  0.0001  0.0000  0.0018  0.0000  0.0000  0.0000  0.0000  0.0000 </r>
        <r>  0.0000  0.0000  0.0000  0.0164  0.0000  0.0000  0.0000  0.0000  0.0000 </r>
        <r>  0.0001  0.0001  0.0000  0.0014  0.0000  0.0000  0.0000  0.0000  0.0000 </r>
        <r>  0.0000  0.0000  0.0000  0.0187  0.0000  0.0000  0.0000  0.0000  0.0000 </r>
        <r>  0.0000  0.0000  0.0000  0.0001  0.0000  0.0000  0.0000  0.0000  0.0000 </r>
        <r>  0.0000  0.0000  0.0000  0.0066  0.0000  0.0000  0.0000  0.0000  0.0000 </r>
        <r>  0.0000  0.0006  0.0007  0.0009  0.0000  0.0000  0.0000  0.0000  0.0000 </r>
        <r>  0.0000  0.0006  0.0010  0.0016  0.0000  0.0000  0.0000  0.0000  0.0000 </r>
        <r>  0.0000  0.0000  0.0000  0.0000  0.0000  0.0000  0.0000  0.0000  0.0000 </r>
        <r>  0.0000  0.0000  0.0000  0.0001  0.0000  0.0000  0.0000  0.0000  0.0000 </r>
        <r>  0.0000  0.0000  0.0000  0.0009  0.0000  0.0000  0.0000  0.0000  0.0000 </r>
        <r>  0.0000  0.0000  0.0000  0.0001  0.0000  0.0000  0.0000  0.0000  0.0000 </r>
        <r>  0.0000  0.0000  0.0000  0.0005  0.0000  0.0000  0.0000  0.0000  0.0000 </r>
        <r>  0.0000  0.0000  0.0001  0.0009  0.0000  0.0000  0.0000  0.0000  0.0000 </r>
       </set>
      </set>
     </set>
    </set>
   </array>
  </projected>
 </calculation>
 <structure name="finalpos" >
  <crystal>
   <varray name="basis" >
    <v>       7.75610000       0.00000000       0.00000000 </v>
    <v>       0.00000000      11.83610000       0.00000000 </v>
    <v>       0.00000000       0.00000000      11.23020000 </v>
   </varray>
   <i name="volume">   1030.95454200 </i>
   <varray name="rec_basis" >
    <v>       0.12893078       0.00000000       0.00000000 </v>
    <v>       0.00000000       0.08448729       0.00000000 </v>
    <v>       0.00000000       0.00000000       0.08904561 </v>
   </varray>
  </crystal>
  <varray name="positions" >
   <v>       0.49762818       0.71118660       0.53761019 </v>
   <v>       0.50060465       0.58438358       0.54247319 </v>
   <v>       0.50925177       0.52113920       0.43831541 </v>
   <v>       0.51261158       0.40313341       0.43538053 </v>
   <v>       0.50675858       0.34448527       0.54315732 </v>
   <v>       0.49790767       0.40515787       0.64950322 </v>
   <v>       0.49494330       0.52321857       0.64947433 </v>
   <v>       0.51553386       0.57531693       0.32928212 </v>
   <v>       0.61371023       0.74445730       0.49358420 </v>
   <v>       0.38629720       0.74192842       0.48628632 </v>
   <v>       0.49065046       0.74679346       0.62765748 </v>
   <v>       0.52427896       0.40160319       0.26599392 </v>
   <v>       0.50928663       0.25238301       0.54144150 </v>
   <v>       0.49335771       0.35941568       0.73374053 </v>
   <v>       0.48793790       0.56950383       0.73343779 </v>
   <v>       0.52139886       0.34571598       0.32989546 </v>
  </varray>
 </structure>
</modeling>
