  16  16   1   0
  0.6432613E+02  0.7753300E-09  0.1181980E-08  0.1123080E-08  0.1000000E-14
   500.000000000000     
  CAR 
 Cluster                                 
      4.29787231    -31.49183201  301     -4.61892652      1.00000000
    -31.492  0.0000E+00  0.0000E+00
    -31.373  0.0000E+00  0.0000E+00
    -31.253  0.0000E+00  0.0000E+00
    -31.134  0.0000E+00  0.0000E+00
    -31.015  0.0000E+00  0.0000E+00
    -30.895  0.0000E+00  0.0000E+00
    -30.776 -0.4871E-33 -0.5667E-34
    -30.657 -0.1094E-24 -0.1276E-25
    -30.537 -0.1780E-17 -0.2085E-18
    -30.418 -0.1992E-11 -0.2344E-12
    -30.299 -0.1527E-06 -0.1805E-07
    -30.180 -0.7055E-03 -0.8379E-04
    -30.060 -0.1555E+00 -0.1861E-01
    -29.941  0.5108E+00  0.4219E-01
    -29.822  0.1358E+02  0.1663E+01
    -29.702  0.3187E+01  0.2044E+01
    -29.583 -0.3614E+00  0.2001E+01
    -29.464 -0.4228E-02  0.2000E+01
    -29.344 -0.2027E-05  0.2000E+01
    -29.225 -0.5615E-10  0.2000E+01
    -29.106  0.0000E+00  0.2000E+01
    -28.987  0.0000E+00  0.2000E+01
    -28.867  0.0000E+00  0.2000E+01
    -28.748  0.0000E+00  0.2000E+01
    -28.629  0.0000E+00  0.2000E+01
    -28.509  0.0000E+00  0.2000E+01
    -28.390  0.0000E+00  0.2000E+01
    -28.271  0.0000E+00  0.2000E+01
    -28.151  0.0000E+00  0.2000E+01
    -28.032 -0.5404E-30  0.2000E+01
    -27.913 -0.2899E-22  0.2000E+01
    -27.794 -0.9343E-16  0.2000E+01
    -27.674 -0.1901E-10  0.2000E+01
    -27.555 -0.2319E-06  0.2000E+01
    -27.436 -0.1623E-03  0.2000E+01
    -27.316 -0.5108E-02  0.1999E+01
    -27.197  0.3405E-01  0.2003E+01
    -27.078  0.3218E+00  0.2041E+01
    -26.958  0.5650E+00  0.2107E+01
    -26.839  0.4305E+00  0.2158E+01
    -26.720  0.4460E+00  0.2210E+01
    -26.601  0.8211E+00  0.2306E+01
    -26.481  0.9774E+00  0.2422E+01
    -26.362  0.6947E+00  0.2504E+01
    -26.243  0.9839E+00  0.2621E+01
    -26.123  0.1026E+01  0.2742E+01
    -26.004  0.1728E+01  0.2949E+01
    -25.885  0.1230E+01  0.3096E+01
    -25.765  0.1209E+01  0.3241E+01
    -25.646  0.1151E+01  0.3379E+01
    -25.527  0.1107E+01  0.3512E+01
    -25.408  0.1158E+01  0.3652E+01
    -25.288  0.8628E+00  0.3756E+01
    -25.169  0.1078E+01  0.3886E+01
    -25.050  0.5388E+00  0.3951E+01
    -24.930  0.3449E+00  0.3993E+01
    -24.811  0.6319E-01  0.4001E+01
    -24.692 -0.6086E-02  0.4000E+01
    -24.572 -0.2003E-03  0.4000E+01
    -24.453 -0.1826E-06  0.4000E+01
    -24.334 -0.6727E-11  0.4000E+01
    -24.215 -0.1198E-16  0.4000E+01
    -24.095  0.0000E+00  0.4000E+01
    -23.976  0.0000E+00  0.4000E+01
    -23.857  0.0000E+00  0.4000E+01
    -23.737  0.0000E+00  0.4000E+01
    -23.618  0.0000E+00  0.4000E+01
    -23.499  0.0000E+00  0.4000E+01
    -23.379  0.0000E+00  0.4000E+01
    -23.260  0.0000E+00  0.4000E+01
    -23.141  0.0000E+00  0.4000E+01
    -23.022  0.0000E+00  0.4000E+01
    -22.902  0.0000E+00  0.4000E+01
    -22.783  0.0000E+00  0.4000E+01
    -22.664  0.0000E+00  0.4000E+01
    -22.544  0.0000E+00  0.4000E+01
    -22.425  0.0000E+00  0.4000E+01
    -22.306  0.0000E+00  0.4000E+01
    -22.187 -0.1907E-28  0.4000E+01
    -22.067 -0.5746E-21  0.4000E+01
    -21.948 -0.1086E-14  0.4000E+01
    -21.829 -0.1333E-09  0.4000E+01
    -21.709 -0.1001E-05  0.4000E+01
    -21.590 -0.4195E-03  0.4000E+01
    -21.471 -0.5499E-02  0.3999E+01
    -21.351  0.6679E-01  0.4007E+01
    -21.232  0.2753E+00  0.4039E+01
    -21.113  0.6340E+00  0.4113E+01
    -20.994  0.1303E+01  0.4267E+01
    -20.874  0.1315E+01  0.4423E+01
    -20.755  0.1673E+01  0.4620E+01
    -20.636  0.3141E+01  0.4994E+01
    -20.516  0.3303E+01  0.5389E+01
    -20.397  0.2069E+01  0.5637E+01
    -20.278  0.1043E+01  0.5763E+01
    -20.158  0.8103E+00  0.5861E+01
    -20.039  0.4493E+00  0.5916E+01
    -19.920  0.4106E+00  0.5966E+01
    -19.801  0.2668E+00  0.5999E+01
    -19.681  0.9813E-02  0.6000E+01
    -19.562 -0.2875E-02  0.6000E+01
    -19.443 -0.2032E-02  0.6000E+01
    -19.323 -0.4540E-02  0.5999E+01
    -19.204  0.2263E+00  0.6026E+01
    -19.085  0.4252E+00  0.6075E+01
    -18.965  0.3984E+00  0.6122E+01
    -18.846  0.8752E+00  0.6226E+01
    -18.727  0.1803E+01  0.6440E+01
    -18.608  0.2536E+01  0.6741E+01
    -18.488  0.3394E+01  0.7145E+01
    -18.369  0.3144E+01  0.7520E+01
    -18.250  0.1945E+01  0.7753E+01
    -18.130  0.1249E+01  0.7904E+01
    -18.011  0.1243E+01  0.8053E+01
    -17.892  0.2014E+01  0.8292E+01
    -17.772  0.2211E+01  0.8554E+01
    -17.653  0.2536E+01  0.8856E+01
    -17.534  0.2603E+01  0.9166E+01
    -17.415  0.2277E+01  0.9438E+01
    -17.295  0.2488E+01  0.9738E+01
    -17.176  0.1449E+01  0.9913E+01
    -17.057  0.2859E+00  0.9948E+01
    -16.937  0.6727E-01  0.9956E+01
    -16.818  0.3876E+00  0.1000E+02
    -16.699  0.9461E+00  0.1011E+02
    -16.579  0.1176E+01  0.1025E+02
    -16.460  0.2202E+01  0.1051E+02
    -16.341  0.2536E+01  0.1082E+02
    -16.222  0.2738E+01  0.1114E+02
    -16.102  0.3431E+01  0.1155E+02
    -15.983  0.2290E+01  0.1183E+02
    -15.864  0.8646E+00  0.1193E+02
    -15.744  0.2669E+00  0.1197E+02
    -15.625  0.2498E+00  0.1200E+02
    -15.506  0.7368E-01  0.1201E+02
    -15.386  0.3165E+00  0.1204E+02
    -15.267  0.4742E+00  0.1210E+02
    -15.148  0.5086E+00  0.1216E+02
    -15.029  0.1215E+01  0.1230E+02
    -14.909  0.2275E+01  0.1257E+02
    -14.790  0.3168E+01  0.1295E+02
    -14.671  0.2849E+01  0.1329E+02
    -14.551  0.2659E+01  0.1361E+02
    -14.432  0.2160E+01  0.1387E+02
    -14.313  0.1700E+01  0.1407E+02
    -14.193  0.1787E+01  0.1428E+02
    -14.074  0.3352E+01  0.1468E+02
    -13.955  0.3847E+01  0.1514E+02
    -13.836  0.3146E+01  0.1552E+02
    -13.716  0.2727E+01  0.1584E+02
    -13.597  0.1412E+01  0.1601E+02
    -13.478  0.9557E+00  0.1613E+02
    -13.358  0.2573E+01  0.1644E+02
    -13.239  0.2817E+01  0.1677E+02
    -13.120  0.3242E+01  0.1716E+02
    -13.000  0.3138E+01  0.1753E+02
    -12.881  0.2929E+01  0.1788E+02
    -12.762  0.9926E+00  0.1800E+02
    -12.643 -0.5261E-03  0.1800E+02
    -12.523 -0.1609E-01  0.1800E+02
    -12.404  0.4249E-01  0.1800E+02
    -12.285  0.3012E+00  0.1804E+02
    -12.165  0.1029E+01  0.1816E+02
    -12.046  0.2330E+01  0.1844E+02
    -11.927  0.2909E+01  0.1879E+02
    -11.807  0.4621E+01  0.1934E+02
    -11.688  0.5880E+01  0.2004E+02
    -11.569  0.5248E+01  0.2067E+02
    -11.450  0.4427E+01  0.2119E+02
    -11.330  0.3822E+01  0.2165E+02
    -11.211  0.1800E+01  0.2187E+02
    -11.092  0.9090E+00  0.2198E+02
    -10.972  0.9146E+00  0.2209E+02
    -10.853  0.1418E+01  0.2226E+02
    -10.734  0.3695E+01  0.2270E+02
    -10.615  0.5138E+01  0.2332E+02
    -10.495  0.6474E+01  0.2409E+02
    -10.376  0.6861E+01  0.2490E+02
    -10.257  0.5268E+01  0.2553E+02
    -10.137  0.2616E+01  0.2584E+02
    -10.018  0.1662E+01  0.2604E+02
     -9.899  0.1684E+01  0.2624E+02
     -9.779  0.3846E+01  0.2670E+02
     -9.660  0.5953E+01  0.2741E+02
     -9.541  0.9427E+01  0.2854E+02
     -9.422  0.9199E+01  0.2963E+02
     -9.302  0.8741E+01  0.3068E+02
     -9.183  0.7747E+01  0.3160E+02
     -9.064  0.5390E+01  0.3224E+02
     -8.944  0.5186E+01  0.3286E+02
     -8.825  0.5302E+01  0.3349E+02
     -8.706  0.5365E+01  0.3413E+02
     -8.586  0.5425E+01  0.3478E+02
     -8.467  0.6422E+01  0.3554E+02
     -8.348  0.7803E+01  0.3648E+02
     -8.229  0.7686E+01  0.3740E+02
     -8.109  0.7063E+01  0.3824E+02
     -7.990  0.6138E+01  0.3897E+02
     -7.871  0.4576E+01  0.3952E+02
     -7.751  0.4867E+01  0.4010E+02
     -7.632  0.5068E+01  0.4070E+02
     -7.513  0.5315E+01  0.4134E+02
     -7.393  0.6237E+01  0.4208E+02
     -7.274  0.5899E+01  0.4278E+02
     -7.155  0.4394E+01  0.4331E+02
     -7.036  0.3063E+01  0.4368E+02
     -6.916  0.1882E+01  0.4390E+02
     -6.797  0.4066E+00  0.4395E+02
     -6.678  0.3972E+00  0.4400E+02
     -6.558  0.3889E-01  0.4400E+02
     -6.439 -0.6756E-02  0.4400E+02
     -6.320 -0.5826E-04  0.4400E+02
     -6.200 -0.1673E-06  0.4400E+02
     -6.081 -0.1534E-03  0.4400E+02
     -5.962 -0.8642E-02  0.4400E+02
     -5.843  0.3846E-01  0.4400E+02
     -5.723  0.6124E+00  0.4408E+02
     -5.604  0.1539E+01  0.4426E+02
     -5.485  0.1814E+01  0.4448E+02
     -5.365  0.3008E+01  0.4484E+02
     -5.246  0.3748E+01  0.4528E+02
     -5.127  0.3297E+01  0.4568E+02
     -5.007  0.3694E+01  0.4612E+02
     -4.888  0.3737E+01  0.4656E+02
     -4.769  0.3639E+01  0.4700E+02
     -4.650  0.3729E+01  0.4744E+02
     -4.530  0.2176E+01  0.4770E+02
     -4.411  0.1991E+01  0.4794E+02
     -4.292  0.5490E+00  0.4801E+02
     -4.172 -0.4076E-01  0.4800E+02
     -4.053 -0.2625E-02  0.4800E+02
     -3.934 -0.8841E-05  0.4800E+02
     -3.814 -0.2090E-08  0.4800E+02
     -3.695 -0.3288E-13  0.4800E+02
     -3.576  0.0000E+00  0.4800E+02
     -3.457  0.0000E+00  0.4800E+02
     -3.337  0.0000E+00  0.4800E+02
     -3.218  0.0000E+00  0.4800E+02
     -3.099  0.0000E+00  0.4800E+02
     -2.979  0.0000E+00  0.4800E+02
     -2.860  0.0000E+00  0.4800E+02
     -2.741  0.0000E+00  0.4800E+02
     -2.621  0.0000E+00  0.4800E+02
     -2.502  0.0000E+00  0.4800E+02
     -2.383  0.0000E+00  0.4800E+02
     -2.264  0.0000E+00  0.4800E+02
     -2.144  0.0000E+00  0.4800E+02
     -2.025 -0.8022E-29  0.4800E+02
     -1.906 -0.4786E-21  0.4800E+02
     -1.786 -0.1473E-14  0.4800E+02
     -1.667 -0.2404E-09  0.4800E+02
     -1.548 -0.1957E-05  0.4800E+02
     -1.428 -0.7066E-03  0.4800E+02
     -1.309 -0.5030E-02  0.4800E+02
     -1.190  0.9444E-01  0.4801E+02
     -1.071  0.4594E+00  0.4807E+02
     -0.951  0.8714E+00  0.4817E+02
     -0.832  0.1846E+01  0.4839E+02
     -0.713  0.3493E+01  0.4881E+02
     -0.593  0.5618E+01  0.4949E+02
     -0.474  0.6846E+01  0.5031E+02
     -0.355  0.8062E+01  0.5127E+02
     -0.235  0.7784E+01  0.5220E+02
     -0.116  0.6072E+01  0.5292E+02
      0.003  0.5217E+01  0.5354E+02
      0.122  0.5114E+01  0.5415E+02
      0.242  0.3729E+01  0.5459E+02
      0.361  0.3786E+01  0.5505E+02
      0.480  0.4668E+01  0.5561E+02
      0.600  0.4983E+01  0.5620E+02
      0.719  0.6354E+01  0.5696E+02
      0.838  0.6866E+01  0.5779E+02
      0.957  0.7535E+01  0.5869E+02
      1.077  0.8079E+01  0.5965E+02
      1.196  0.7472E+01  0.6054E+02
      1.315  0.6776E+01  0.6134E+02
      1.435  0.6133E+01  0.6207E+02
      1.554  0.6236E+01  0.6282E+02
      1.673  0.7021E+01  0.6366E+02
      1.793  0.6233E+01  0.6441E+02
      1.912  0.6665E+01  0.6520E+02
      2.031  0.7855E+01  0.6614E+02
      2.150  0.7901E+01  0.6708E+02
      2.270  0.8207E+01  0.6806E+02
      2.389  0.6764E+01  0.6886E+02
      2.508  0.5082E+01  0.6946E+02
      2.628  0.6680E+01  0.7026E+02
      2.747  0.1433E+02  0.7197E+02
      2.866  0.4475E+00  0.7202E+02
      2.986 -0.1593E+00  0.7200E+02
      3.105 -0.7136E-03  0.7200E+02
      3.224 -0.1537E-06  0.7200E+02
      3.343 -0.1999E-11  0.7200E+02
      3.463  0.0000E+00  0.7200E+02
      3.582  0.0000E+00  0.7200E+02
      3.701  0.0000E+00  0.7200E+02
      3.821  0.0000E+00  0.7200E+02
      3.940  0.0000E+00  0.7200E+02
      4.059  0.0000E+00  0.7200E+02
      4.179  0.0000E+00  0.7200E+02
      4.298  0.0000E+00  0.7200E+02
      4.48604373    -31.60142049  301     -4.54879271      1.00000000
    -31.601  0.0000E+00  0.0000E+00
    -31.481  0.0000E+00  0.0000E+00
    -31.361  0.0000E+00  0.0000E+00
    -31.241  0.0000E+00  0.0000E+00
    -31.120  0.0000E+00  0.0000E+00
    -31.000  0.0000E+00  0.0000E+00
    -30.880 -0.3244E-37 -0.3902E-38
    -30.759 -0.2627E-28 -0.3160E-29
    -30.639 -0.1151E-20 -0.1385E-21
    -30.519 -0.2617E-14 -0.3148E-15
    -30.399 -0.3180E-09 -0.3826E-10
    -30.278 -0.1923E-05 -0.2314E-06
    -30.158 -0.4881E-03 -0.5895E-04
    -30.038  0.1561E-02  0.1288E-03
    -29.917  0.4514E-01  0.5559E-02
    -29.797  0.1039E-01  0.6808E-02
    -29.677 -0.1163E-02  0.6668E-02
    -29.556 -0.1210E-04  0.6667E-02
    -29.436 -0.4618E-08  0.6667E-02
    -29.316 -0.8558E-13  0.6667E-02
    -29.196  0.0000E+00  0.6667E-02
    -29.075  0.0000E+00  0.6667E-02
    -28.955  0.0000E+00  0.6667E-02
    -28.835  0.0000E+00  0.6667E-02
    -28.714  0.0000E+00  0.6667E-02
    -28.594  0.0000E+00  0.6667E-02
    -28.474  0.0000E+00  0.6667E-02
    -28.354  0.0000E+00  0.6667E-02
    -28.233  0.0000E+00  0.6667E-02
    -28.113  0.0000E+00  0.6667E-02
    -27.993  0.0000E+00  0.6667E-02
    -27.872  0.0000E+00  0.6667E-02
    -27.752  0.0000E+00  0.6667E-02
    -27.632  0.0000E+00  0.6667E-02
    -27.512  0.0000E+00  0.6667E-02
    -27.391  0.0000E+00  0.6667E-02
    -27.271 -0.7715E-30  0.6667E-02
    -27.151 -0.5760E-22  0.6667E-02
    -27.030 -0.2249E-15  0.6667E-02
    -26.910 -0.4682E-10  0.6667E-02
    -26.790 -0.4928E-06  0.6667E-02
    -26.669 -0.2299E-03  0.6639E-02
    -26.549 -0.1073E-02  0.6510E-02
    -26.429  0.3896E-01  0.1120E-01
    -26.309  0.1948E-01  0.1354E-01
    -26.188 -0.1681E-02  0.1334E-01
    -26.068 -0.3627E-04  0.1333E-01
    -25.948 -0.2444E-07  0.1333E-01
    -25.827 -0.7813E-12  0.1333E-01
    -25.707  0.0000E+00  0.1333E-01
    -25.587  0.0000E+00  0.1333E-01
    -25.467  0.0000E+00  0.1333E-01
    -25.346  0.0000E+00  0.1333E-01
    -25.226  0.0000E+00  0.1333E-01
    -25.106  0.0000E+00  0.1333E-01
    -24.985  0.0000E+00  0.1333E-01
    -24.865  0.0000E+00  0.1333E-01
    -24.745  0.0000E+00  0.1333E-01
    -24.625  0.0000E+00  0.1333E-01
    -24.504  0.0000E+00  0.1333E-01
    -24.384  0.0000E+00  0.1333E-01
    -24.264  0.0000E+00  0.1333E-01
    -24.143  0.0000E+00  0.1333E-01
    -24.023  0.0000E+00  0.1333E-01
    -23.903  0.0000E+00  0.1333E-01
    -23.782  0.0000E+00  0.1333E-01
    -23.662  0.0000E+00  0.1333E-01
    -23.542  0.0000E+00  0.1333E-01
    -23.422  0.0000E+00  0.1333E-01
    -23.301  0.0000E+00  0.1333E-01
    -23.181  0.0000E+00  0.1333E-01
    -23.061  0.0000E+00  0.1333E-01
    -22.940  0.0000E+00  0.1333E-01
    -22.820  0.0000E+00  0.1333E-01
    -22.700  0.0000E+00  0.1333E-01
    -22.580  0.0000E+00  0.1333E-01
    -22.459  0.0000E+00  0.1333E-01
    -22.339  0.0000E+00  0.1333E-01
    -22.219  0.0000E+00  0.1333E-01
    -22.098  0.0000E+00  0.1333E-01
    -21.978  0.0000E+00  0.1333E-01
    -21.858  0.0000E+00  0.1333E-01
    -21.738  0.0000E+00  0.1333E-01
    -21.617  0.0000E+00  0.1333E-01
    -21.497 -0.1069E-28  0.1333E-01
    -21.377 -0.5372E-21  0.1333E-01
    -21.256 -0.1402E-14  0.1333E-01
    -21.136 -0.1960E-09  0.1333E-01
    -21.016 -0.1368E-05  0.1333E-01
    -20.895 -0.4070E-03  0.1328E-01
    -20.775  0.6589E-03  0.1336E-01
    -20.655  0.4397E-01  0.1865E-01
    -20.535  0.1252E-01  0.2016E-01
    -20.414 -0.1304E-02  0.2000E-01
    -20.294 -0.1622E-04  0.2000E-01
    -20.174 -0.7162E-08  0.2000E-01
    -20.053 -0.1527E-12  0.2000E-01
    -19.933  0.0000E+00  0.2000E-01
    -19.813  0.0000E+00  0.2000E-01
    -19.693 -0.1643E-35  0.2000E-01
    -19.572 -0.7856E-27  0.2000E-01
    -19.452 -0.2029E-19  0.2000E-01
    -19.332 -0.2708E-13  0.2000E-01
    -19.211 -0.1922E-08  0.2000E-01
    -19.091 -0.6684E-05  0.2000E-01
    -18.971 -0.9016E-03  0.1989E-01
    -18.851  0.6711E-02  0.2070E-01
    -18.730  0.4647E-01  0.2629E-01
    -18.610  0.3833E-02  0.2675E-01
    -18.490 -0.6785E-03  0.2667E-01
    -18.369 -0.3669E-05  0.2667E-01
    -18.249 -0.8033E-09  0.2667E-01
    -18.129 -0.9116E-14  0.2667E-01
    -18.008 -0.7754E-10  0.2667E-01
    -17.888 -0.7075E-06  0.2667E-01
    -17.768 -0.2827E-03  0.2663E-01
    -17.648 -0.6040E-03  0.2656E-01
    -17.527  0.4095E-01  0.3149E-01
    -17.407  0.1694E-01  0.3352E-01
    -17.287 -0.1560E-02  0.3334E-01
    -17.166 -0.2760E-04  0.3333E-01
    -17.046 -0.1604E-07  0.3333E-01
    -16.926 -0.8521E-12  0.3333E-01
    -16.806 -0.1499E-07  0.3333E-01
    -16.685 -0.2640E-04  0.3333E-01
    -16.565 -0.1539E-02  0.3315E-01
    -16.445  0.1655E-01  0.3514E-01
    -16.324  0.4125E-01  0.4010E-01
    -16.204 -0.5162E-03  0.4004E-01
    -16.084 -0.2920E-03  0.4000E-01
    -15.964 -0.7493E-06  0.4000E-01
    -15.843 -0.8403E-10  0.4000E-01
    -15.723 -0.2416E-14  0.4000E-01
    -15.603 -0.2516E-09  0.4000E-01
    -15.482 -0.1631E-05  0.4000E-01
    -15.362 -0.4473E-03  0.3995E-01
    -15.242  0.1101E-02  0.4008E-01
    -15.121  0.4461E-01  0.4544E-01
    -15.001  0.1140E-01  0.4682E-01
    -14.881 -0.1231E-02  0.4667E-01
    -14.761 -0.1396E-04  0.4667E-01
    -14.640 -0.5721E-08  0.4667E-01
    -14.520 -0.1100E-09  0.4667E-01
    -14.400 -0.9072E-06  0.4667E-01
    -14.279 -0.3249E-03  0.4663E-01
    -14.159 -0.1951E-03  0.4660E-01
    -14.039  0.4219E-01  0.5168E-01
    -13.919  0.1524E-01  0.5351E-01
    -13.798 -0.1467E-02  0.5334E-01
    -13.678 -0.2272E-04  0.5333E-01
    -13.558 -0.2426E-04  0.5333E-01
    -13.437 -0.1499E-02  0.5315E-01
    -13.317  0.1580E-01  0.5505E-01
    -13.197  0.4179E-01  0.6008E-01
    -13.077 -0.3397E-03  0.6004E-01
    -12.956 -0.3103E-03  0.6000E-01
    -12.836 -0.8351E-06  0.6000E-01
    -12.716 -0.9784E-10  0.6000E-01
    -12.595 -0.1820E-08  0.6000E-01
    -12.475 -0.6439E-05  0.6000E-01
    -12.355 -0.8864E-03  0.5989E-01
    -12.234  0.6508E-02  0.6068E-01
    -12.114  0.4651E-01  0.6627E-01
    -11.994  0.3965E-02  0.6675E-01
    -11.874 -0.2305E-02  0.6647E-01
    -11.753  0.1800E-01  0.6863E-01
    -11.633  0.4014E-01  0.7346E-01
    -11.513 -0.8179E-03  0.7336E-01
    -11.392 -0.2593E-03  0.7333E-01
    -11.272 -0.6078E-06  0.7333E-01
    -11.152 -0.8152E-10  0.7333E-01
    -11.032 -0.2549E-06  0.7333E-01
    -10.911 -0.1562E-03  0.7331E-01
    -10.791 -0.1611E-02  0.7312E-01
    -10.671  0.3492E-01  0.7732E-01
    -10.550  0.2385E-01  0.8019E-01
    -10.430 -0.2159E-02  0.7993E-01
    -10.310  0.4179E-01  0.8496E-01
    -10.190  0.1572E-01  0.8685E-01
    -10.069 -0.1859E-02  0.8663E-01
     -9.949  0.1827E-03  0.8665E-01
     -9.829  0.4288E-01  0.9181E-01
     -9.708  0.1298E-01  0.9337E-01
     -9.588  0.3851E-01  0.9800E-01
     -9.468  0.1693E-01  0.1000E+00
     -9.347  0.1150E-01  0.1014E+00
     -9.227  0.4349E-01  0.1067E+00
     -9.107 -0.1428E-02  0.1065E+00
     -8.987  0.2559E-01  0.1096E+00
     -8.866  0.3287E-01  0.1135E+00
     -8.746 -0.1318E-02  0.1134E+00
     -8.626  0.4341E-01  0.1186E+00
     -8.505  0.1312E-01  0.1202E+00
     -8.385 -0.3268E-02  0.1198E+00
     -8.265  0.2705E-01  0.1230E+00
     -8.145  0.5218E-01  0.1293E+00
     -8.024  0.3527E-01  0.1335E+00
     -7.904 -0.1514E-02  0.1334E+00
     -7.784 -0.1889E-02  0.1331E+00
     -7.663  0.1984E-01  0.1355E+00
     -7.543  0.3848E-01  0.1401E+00
     -7.423 -0.2557E-02  0.1398E+00
     -7.303  0.3646E-01  0.1442E+00
     -7.182  0.2218E-01  0.1469E+00
     -7.062 -0.1785E-02  0.1467E+00
     -6.942 -0.4772E-04  0.1467E+00
     -6.821 -0.3747E-07  0.1467E+00
     -6.701 -0.1386E-11  0.1467E+00
     -6.581  0.0000E+00  0.1467E+00
     -6.460  0.0000E+00  0.1467E+00
     -6.340 -0.6911E-33  0.1467E+00
     -6.220 -0.1429E-24  0.1467E+00
     -6.100 -0.1594E-17  0.1467E+00
     -5.979 -0.9098E-12  0.1467E+00
     -5.859 -0.2738E-07  0.1467E+00
     -5.739 -0.3903E-04  0.1467E+00
     -5.618 -0.1711E-02  0.1465E+00
     -5.498  0.2019E-01  0.1489E+00
     -5.378  0.3838E-01  0.1535E+00
     -5.258 -0.1179E-02  0.1534E+00
     -5.137 -0.2170E-03  0.1533E+00
     -5.017 -0.4680E-06  0.1533E+00
     -4.897 -0.3400E-04  0.1533E+00
     -4.776 -0.1654E-02  0.1531E+00
     -4.656  0.1886E-01  0.1554E+00
     -4.536  0.3946E-01  0.1601E+00
     -4.416 -0.9727E-03  0.1600E+00
     -4.295 -0.2417E-03  0.1600E+00
     -4.175 -0.5375E-06  0.1600E+00
     -4.055 -0.5284E-10  0.1600E+00
     -3.934 -0.2584E-15  0.1600E+00
     -3.814  0.0000E+00  0.1600E+00
     -3.694  0.0000E+00  0.1600E+00
     -3.573  0.0000E+00  0.1600E+00
     -3.453  0.0000E+00  0.1600E+00
     -3.333  0.0000E+00  0.1600E+00
     -3.213  0.0000E+00  0.1600E+00
     -3.092  0.0000E+00  0.1600E+00
     -2.972  0.0000E+00  0.1600E+00
     -2.852  0.0000E+00  0.1600E+00
     -2.731  0.0000E+00  0.1600E+00
     -2.611  0.0000E+00  0.1600E+00
     -2.491  0.0000E+00  0.1600E+00
     -2.371  0.0000E+00  0.1600E+00
     -2.250  0.0000E+00  0.1600E+00
     -2.130  0.0000E+00  0.1600E+00
     -2.010  0.0000E+00  0.1600E+00
     -1.889  0.0000E+00  0.1600E+00
     -1.769  0.0000E+00  0.1600E+00
     -1.649  0.0000E+00  0.1600E+00
     -1.529  0.0000E+00  0.1600E+00
     -1.408  0.0000E+00  0.1600E+00
     -1.288 -0.6474E-30  0.1600E+00
     -1.168 -0.5176E-22  0.1600E+00
     -1.047 -0.2192E-15  0.1600E+00
     -0.927 -0.5051E-10  0.1600E+00
     -0.807 -0.6035E-06  0.1600E+00
     -0.686 -0.3337E-03  0.1600E+00
     -0.566 -0.2984E-02  0.1596E+00
     -0.446  0.6986E-01  0.1680E+00
     -0.326  0.4695E-01  0.1737E+00
     -0.205  0.3663E-01  0.1781E+00
     -0.085  0.1778E-01  0.1802E+00
      0.035 -0.1609E-02  0.1800E+00
      0.156 -0.2247E-03  0.1800E+00
      0.276 -0.1356E-02  0.1798E+00
      0.396  0.3723E-01  0.1843E+00
      0.516  0.2126E-01  0.1868E+00
      0.637 -0.2298E-02  0.1866E+00
      0.757  0.4071E-01  0.1915E+00
      0.877  0.1756E-01  0.1936E+00
      0.998  0.4285E-01  0.1987E+00
      1.118  0.1177E-01  0.2002E+00
      1.238 -0.1269E-02  0.2000E+00
      1.358 -0.1173E-02  0.1999E+00
      1.479  0.8893E-02  0.2009E+00
      1.599  0.5642E-01  0.2077E+00
      1.719  0.4548E-01  0.2132E+00
      1.840  0.8175E-02  0.2142E+00
      1.960  0.4583E-01  0.2197E+00
      2.080  0.2671E-02  0.2200E+00
      2.201  0.3789E-03  0.2201E+00
      2.321  0.6187E-01  0.2275E+00
      2.441  0.5029E-01  0.2335E+00
      2.561 -0.1430E-02  0.2334E+00
      2.682 -0.1479E-02  0.2332E+00
      2.802  0.1038E-01  0.2344E+00
      2.922  0.4514E-01  0.2399E+00
      3.043  0.1561E-02  0.2401E+00
      3.163 -0.4881E-03  0.2400E+00
      3.283 -0.1923E-05  0.2400E+00
      3.403 -0.3180E-09  0.2400E+00
      3.524 -0.2621E-14  0.2400E+00
      3.644  0.0000E+00  0.2400E+00
      3.764  0.0000E+00  0.2400E+00
      3.885  0.0000E+00  0.2400E+00
      4.005  0.0000E+00  0.2400E+00
      4.125  0.0000E+00  0.2400E+00
      4.245  0.0000E+00  0.2400E+00
      4.366  0.0000E+00  0.2400E+00
      4.486  0.0000E+00  0.2400E+00
      4.48604373    -31.60142049  301     -4.54879271      1.00000000
    -31.601  0.0000E+00  0.0000E+00  0.0000E+00  0.0000E+00  0.0000E+00  0.0000E+00  0.0000E+00  0.0000E+00  0.0000E+00
    -31.481  0.0000E+00  0.0000E+00  0.0000E+00  0.0000E+00  0.0000E+00  0.0000E+00  0.0000E+00  0.0000E+00  0.0000E+00
    -31.361  0.0000E+00  0.0000E+00  0.0000E+00  0.0000E+00  0.0000E+00  0.0000E+00  0.0000E+00  0.0000E+00  0.0000E+00
    -31.241  0.0000E+00  0.0000E+00  0.0000E+00  0.0000E+00  0.0000E+00  0.0000E+00  0.0000E+00  0.0000E+00  0.0000E+00
    -31.120  0.0000E+00  0.0000E+00  0.0000E+00  0.0000E+00  0.0000E+00  0.0000E+00  0.0000E+00  0.0000E+00  0.0000E+00
    -31.000  0.0000E+00  0.0000E+00  0.0000E+00  0.0000E+00  0.0000E+00  0.0000E+00  0.0000E+00  0.0000E+00  0.0000E+00
    -30.880 -0.2298E-41 -0.1090E-42 -0.8550E-42 -0.3379E-43  0.0000E+00  0.0000E+00  0.0000E+00  0.0000E+00  0.0000E+00
    -30.759 -0.1861E-32 -0.8826E-34 -0.6924E-33 -0.2737E-34  0.0000E+00  0.0000E+00  0.0000E+00  0.0000E+00  0.0000E+00
    -30.639 -0.8153E-25 -0.3867E-26 -0.3034E-25 -0.1199E-26  0.0000E+00  0.0000E+00  0.0000E+00  0.0000E+00  0.0000E+00
    -30.519 -0.1854E-18 -0.8793E-20 -0.6898E-19 -0.2726E-20  0.0000E+00  0.0000E+00  0.0000E+00  0.0000E+00  0.0000E+00
    -30.399 -0.2253E-13 -0.1068E-14 -0.8382E-14 -0.3313E-15  0.0000E+00  0.0000E+00  0.0000E+00  0.0000E+00  0.0000E+00
    -30.278 -0.1362E-09 -0.6461E-11 -0.5069E-10 -0.2003E-11  0.0000E+00  0.0000E+00  0.0000E+00  0.0000E+00  0.0000E+00
    -30.158 -0.3457E-07 -0.1640E-08 -0.1286E-07 -0.5084E-09  0.0000E+00  0.0000E+00  0.0000E+00  0.0000E+00  0.0000E+00
    -30.038  0.1105E-06  0.5243E-08  0.4113E-07  0.1626E-08  0.0000E+00  0.0000E+00  0.0000E+00  0.0000E+00  0.0000E+00
    -29.917  0.3197E-05  0.1516E-06  0.1190E-05  0.4702E-07  0.0000E+00  0.0000E+00  0.0000E+00  0.0000E+00  0.0000E+00
    -29.797  0.7356E-06  0.3489E-07  0.2737E-06  0.1082E-07  0.0000E+00  0.0000E+00  0.0000E+00  0.0000E+00  0.0000E+00
    -29.677 -0.8241E-07 -0.3909E-08 -0.3066E-07 -0.1212E-08  0.0000E+00  0.0000E+00  0.0000E+00  0.0000E+00  0.0000E+00
    -29.556 -0.8569E-09 -0.4064E-10 -0.3189E-09 -0.1260E-10  0.0000E+00  0.0000E+00  0.0000E+00  0.0000E+00  0.0000E+00
    -29.436 -0.3271E-12 -0.1551E-13 -0.1217E-12 -0.4811E-14  0.0000E+00  0.0000E+00  0.0000E+00  0.0000E+00  0.0000E+00
    -29.316 -0.6061E-17 -0.2875E-18 -0.2255E-17 -0.8914E-19  0.0000E+00  0.0000E+00  0.0000E+00  0.0000E+00  0.0000E+00
    -29.196  0.0000E+00  0.0000E+00  0.0000E+00  0.0000E+00  0.0000E+00  0.0000E+00  0.0000E+00  0.0000E+00  0.0000E+00
    -29.075  0.0000E+00  0.0000E+00  0.0000E+00  0.0000E+00  0.0000E+00  0.0000E+00  0.0000E+00  0.0000E+00  0.0000E+00
    -28.955  0.0000E+00  0.0000E+00  0.0000E+00  0.0000E+00  0.0000E+00  0.0000E+00  0.0000E+00  0.0000E+00  0.0000E+00
    -28.835  0.0000E+00  0.0000E+00  0.0000E+00  0.0000E+00  0.0000E+00  0.0000E+00  0.0000E+00  0.0000E+00  0.0000E+00
    -28.714  0.0000E+00  0.0000E+00  0.0000E+00  0.0000E+00  0.0000E+00  0.0000E+00  0.0000E+00  0.0000E+00  0.0000E+00
    -28.594  0.0000E+00  0.0000E+00  0.0000E+00  0.0000E+00  0.0000E+00  0.0000E+00  0.0000E+00  0.0000E+00  0.0000E+00
    -28.474  0.0000E+00  0.0000E+00  0.0000E+00  0.0000E+00  0.0000E+00  0.0000E+00  0.0000E+00  0.0000E+00  0.0000E+00
    -28.354  0.0000E+00  0.0000E+00  0.0000E+00  0.0000E+00  0.0000E+00  0.0000E+00  0.0000E+00  0.0000E+00  0.0000E+00
    -28.233  0.0000E+00  0.0000E+00  0.0000E+00  0.0000E+00  0.0000E+00  0.0000E+00  0.0000E+00  0.0000E+00  0.0000E+00
    -28.113  0.0000E+00  0.0000E+00  0.0000E+00  0.0000E+00  0.0000E+00  0.0000E+00  0.0000E+00  0.0000E+00  0.0000E+00
    -27.993  0.0000E+00  0.0000E+00  0.0000E+00  0.0000E+00  0.0000E+00  0.0000E+00  0.0000E+00  0.0000E+00  0.0000E+00
    -27.872  0.0000E+00  0.0000E+00  0.0000E+00  0.0000E+00  0.0000E+00  0.0000E+00  0.0000E+00  0.0000E+00  0.0000E+00
    -27.752  0.0000E+00  0.0000E+00  0.0000E+00  0.0000E+00  0.0000E+00  0.0000E+00  0.0000E+00  0.0000E+00  0.0000E+00
    -27.632  0.0000E+00  0.0000E+00  0.0000E+00  0.0000E+00  0.0000E+00  0.0000E+00  0.0000E+00  0.0000E+00  0.0000E+00
    -27.512  0.0000E+00  0.0000E+00  0.0000E+00  0.0000E+00  0.0000E+00  0.0000E+00  0.0000E+00  0.0000E+00  0.0000E+00
    -27.391  0.0000E+00  0.0000E+00  0.0000E+00  0.0000E+00  0.0000E+00  0.0000E+00  0.0000E+00  0.0000E+00  0.0000E+00
    -27.271 -0.4106E-31 -0.2708E-32 -0.1309E-31 -0.5948E-34  0.0000E+00  0.0000E+00  0.0000E+00  0.0000E+00  0.0000E+00
    -27.151 -0.3066E-23 -0.2022E-24 -0.9772E-24 -0.4441E-26  0.0000E+00  0.0000E+00  0.0000E+00  0.0000E+00  0.0000E+00
    -27.030 -0.1197E-16 -0.7894E-18 -0.3815E-17 -0.1734E-19  0.0000E+00  0.0000E+00  0.0000E+00  0.0000E+00  0.0000E+00
    -26.910 -0.2492E-11 -0.1643E-12 -0.7942E-12 -0.3610E-14  0.0000E+00  0.0000E+00  0.0000E+00  0.0000E+00  0.0000E+00
    -26.790 -0.2623E-07 -0.1730E-08 -0.8359E-08 -0.3799E-10  0.0000E+00  0.0000E+00  0.0000E+00  0.0000E+00  0.0000E+00
    -26.669 -0.1224E-04 -0.8069E-06 -0.3900E-05 -0.1773E-07  0.0000E+00  0.0000E+00  0.0000E+00  0.0000E+00  0.0000E+00
    -26.549 -0.5710E-04 -0.3766E-05 -0.1820E-04 -0.8272E-07  0.0000E+00  0.0000E+00  0.0000E+00  0.0000E+00  0.0000E+00
    -26.429  0.2074E-02  0.1368E-03  0.6610E-03  0.3004E-05  0.0000E+00  0.0000E+00  0.0000E+00  0.0000E+00  0.0000E+00
    -26.309  0.1037E-02  0.6836E-04  0.3304E-03  0.1502E-05  0.0000E+00  0.0000E+00  0.0000E+00  0.0000E+00  0.0000E+00
    -26.188 -0.8949E-04 -0.5901E-05 -0.2852E-04 -0.1296E-06  0.0000E+00  0.0000E+00  0.0000E+00  0.0000E+00  0.0000E+00
    -26.068 -0.1931E-05 -0.1273E-06 -0.6153E-06 -0.2797E-08  0.0000E+00  0.0000E+00  0.0000E+00  0.0000E+00  0.0000E+00
    -25.948 -0.1301E-08 -0.8577E-10 -0.4146E-09 -0.1884E-11  0.0000E+00  0.0000E+00  0.0000E+00  0.0000E+00  0.0000E+00
    -25.827 -0.4158E-13 -0.2742E-14 -0.1325E-13 -0.6024E-16  0.0000E+00  0.0000E+00  0.0000E+00  0.0000E+00  0.0000E+00
    -25.707  0.0000E+00  0.0000E+00  0.0000E+00  0.0000E+00  0.0000E+00  0.0000E+00  0.0000E+00  0.0000E+00  0.0000E+00
    -25.587  0.0000E+00  0.0000E+00  0.0000E+00  0.0000E+00  0.0000E+00  0.0000E+00  0.0000E+00  0.0000E+00  0.0000E+00
    -25.467  0.0000E+00  0.0000E+00  0.0000E+00  0.0000E+00  0.0000E+00  0.0000E+00  0.0000E+00  0.0000E+00  0.0000E+00
    -25.346  0.0000E+00  0.0000E+00  0.0000E+00  0.0000E+00  0.0000E+00  0.0000E+00  0.0000E+00  0.0000E+00  0.0000E+00
    -25.226  0.0000E+00  0.0000E+00  0.0000E+00  0.0000E+00  0.0000E+00  0.0000E+00  0.0000E+00  0.0000E+00  0.0000E+00
    -25.106  0.0000E+00  0.0000E+00  0.0000E+00  0.0000E+00  0.0000E+00  0.0000E+00  0.0000E+00  0.0000E+00  0.0000E+00
    -24.985  0.0000E+00  0.0000E+00  0.0000E+00  0.0000E+00  0.0000E+00  0.0000E+00  0.0000E+00  0.0000E+00  0.0000E+00
    -24.865  0.0000E+00  0.0000E+00  0.0000E+00  0.0000E+00  0.0000E+00  0.0000E+00  0.0000E+00  0.0000E+00  0.0000E+00
    -24.745  0.0000E+00  0.0000E+00  0.0000E+00  0.0000E+00  0.0000E+00  0.0000E+00  0.0000E+00  0.0000E+00  0.0000E+00
    -24.625  0.0000E+00  0.0000E+00  0.0000E+00  0.0000E+00  0.0000E+00  0.0000E+00  0.0000E+00  0.0000E+00  0.0000E+00
    -24.504  0.0000E+00  0.0000E+00  0.0000E+00  0.0000E+00  0.0000E+00  0.0000E+00  0.0000E+00  0.0000E+00  0.0000E+00
    -24.384  0.0000E+00  0.0000E+00  0.0000E+00  0.0000E+00  0.0000E+00  0.0000E+00  0.0000E+00  0.0000E+00  0.0000E+00
    -24.264  0.0000E+00  0.0000E+00  0.0000E+00  0.0000E+00  0.0000E+00  0.0000E+00  0.0000E+00  0.0000E+00  0.0000E+00
    -24.143  0.0000E+00  0.0000E+00  0.0000E+00  0.0000E+00  0.0000E+00  0.0000E+00  0.0000E+00  0.0000E+00  0.0000E+00
    -24.023  0.0000E+00  0.0000E+00  0.0000E+00  0.0000E+00  0.0000E+00  0.0000E+00  0.0000E+00  0.0000E+00  0.0000E+00
    -23.903  0.0000E+00  0.0000E+00  0.0000E+00  0.0000E+00  0.0000E+00  0.0000E+00  0.0000E+00  0.0000E+00  0.0000E+00
    -23.782  0.0000E+00  0.0000E+00  0.0000E+00  0.0000E+00  0.0000E+00  0.0000E+00  0.0000E+00  0.0000E+00  0.0000E+00