   16   16  300    1
  0.6432613E+02  0.7753300E-09  0.1181980E-08  0.1123080E-08  0.1000000E-14
   500.000000000000     
  CAR 
 Cluster                                 
     48      1     36
 
  0.0000000E+00  0.0000000E+00  0.0000000E+00  0.1000000E+01
      1        -29.961081   1.000000
      2        -26.450662   1.000000
      3        -20.692975   1.000000
      4        -18.795719   1.000000
      5        -17.554762   1.000000
      6        -16.416322   1.000000
      7        -15.162471   1.000000
      8        -14.070271   1.000000
      9        -13.287015   1.000000
     10        -12.179004   1.000000
     11        -11.728258   1.000000
     12        -10.682391   1.000000
     13        -10.340098   1.000000
     14         -9.863421   1.000000
     15         -9.612466   1.000000
     16         -9.310938   1.000000
     17         -8.978745   1.000000
     18         -8.662076   1.000000
     19         -8.263079   1.000000
     20         -8.127590   1.000000
     21         -7.642429   1.000000
     22         -7.318447   1.000000
     23         -5.477926   1.000000
     24         -4.632981   1.000000
     25         -0.466173   0.000000
     26         -0.450366   0.000000
     27         -0.230613   0.000000
     28          0.378851   0.000000
     29          0.728815   0.000000
     30          0.957624   0.000000
     31          1.523266   0.000000
     32          1.640702   0.000000
     33          1.891973   0.000000
     34          2.271971   0.000000
     35          2.350523   0.000000
     36          2.845704   0.000000
