PROCAR lm decomposed
# of k-points:    1         # of bands:   36         # of ions:   16

 k-point     1 :    0.00000000 0.00000000 0.00000000     weight = 1.00000000

band     1 # energy  -29.96108120 # occ.  2.00000000
 
ion      s     py     pz     px    dxy    dyz    dz2    dxz  x2-y2    tot
    1  0.000  0.000  0.000  0.000  0.000  0.000  0.000  0.000  0.000  0.000
    2  0.000  0.000  0.000  0.000  0.000  0.000  0.000  0.000  0.000  0.000
    3  0.002  0.000  0.001  0.000  0.000  0.000  0.000  0.000  0.000  0.002
    4  0.045  0.000  0.023  0.005  0.000  0.000  0.000  0.000  0.000  0.073
    5  0.001  0.000  0.000  0.000  0.000  0.000  0.000  0.000  0.000  0.001
    6  0.000  0.000  0.000  0.000  0.000  0.000  0.000  0.000  0.000  0.000
    7  0.000  0.000  0.000  0.000  0.000  0.000  0.000  0.000  0.000  0.000
    8  0.786  0.000  0.021  0.004  0.000  0.000  0.000  0.000  0.000  0.811
    9  0.000  0.000  0.000  0.000  0.000  0.000  0.000  0.000  0.000  0.000
   10  0.000  0.000  0.000  0.000  0.000  0.000  0.000  0.000  0.000  0.000
   11  0.000  0.000  0.000  0.000  0.000  0.000  0.000  0.000  0.000  0.000
   12  0.000  0.000  0.000  0.000  0.000  0.000  0.000  0.000  0.000  0.000
   13  0.000  0.000  0.000  0.000  0.000  0.000  0.000  0.000  0.000  0.000
   14  0.000  0.000  0.000  0.000  0.000  0.000  0.000  0.000  0.000  0.000
   15  0.000  0.000  0.000  0.000  0.000  0.000  0.000  0.000  0.000  0.000
   16  0.002  0.000  0.000  0.000  0.000  0.000  0.000  0.000  0.000  0.003
tot    0.836  0.000  0.045  0.009  0.000  0.000  0.000  0.000  0.000  0.890
 
band     2 # energy  -26.45066185 # occ.  2.00000000
 
ion      s     py     pz     px    dxy    dyz    dz2    dxz  x2-y2    tot
    1  0.000  0.000  0.000  0.000  0.000  0.000  0.000  0.000  0.000  0.000
    2  0.003  0.000  0.001  0.000  0.000  0.000  0.000  0.000  0.000  0.004
    3  0.085  0.016  0.004  0.019  0.000  0.000  0.000  0.000  0.000  0.123
    4  0.001  0.001  0.001  0.000  0.000  0.000  0.000  0.000  0.000  0.003
    5  0.000  0.000  0.000  0.000  0.000  0.000  0.000  0.000  0.000  0.000
    6  0.000  0.000  0.000  0.000  0.000  0.000  0.000  0.000  0.000  0.000
    7  0.000  0.000  0.000  0.000  0.000  0.000  0.000  0.000  0.000  0.000
    8  0.007  0.000  0.000  0.000  0.000  0.000  0.000  0.000  0.000  0.007
    9  0.000  0.000  0.000  0.000  0.000  0.000  0.000  0.000  0.000  0.000
   10  0.000  0.000  0.000  0.000  0.000  0.000  0.000  0.000  0.000  0.000
   11  0.000  0.000  0.000  0.000  0.000  0.000  0.000  0.000  0.000  0.000
   12  0.081  0.000  0.018  0.001  0.000  0.000  0.000  0.000  0.000  0.100
   13  0.000  0.000  0.000  0.000  0.000  0.000  0.000  0.000  0.000  0.000
   14  0.000  0.000  0.000  0.000  0.000  0.000  0.000  0.000  0.000  0.000
   15  0.000  0.000  0.000  0.000  0.000  0.000  0.000  0.000  0.000  0.000
   16  0.651  0.015  0.009  0.014  0.000  0.000  0.000  0.000  0.000  0.689
tot    0.829  0.032  0.033  0.034  0.000  0.000  0.000  0.000  0.000  0.927
 
band     3 # energy  -20.69297498 # occ.  2.00000000
 
ion      s     py     pz     px    dxy    dyz    dz2    dxz  x2-y2    tot
    1  0.018  0.001  0.001  0.000  0.000  0.000  0.000  0.000  0.000  0.020
    2  0.114  0.002  0.002  0.002  0.000  0.000  0.000  0.000  0.000  0.120
    3  0.065  0.005  0.002  0.011  0.000  0.000  0.000  0.000  0.000  0.083
    4  0.082  0.000  0.013  0.004  0.000  0.000  0.000  0.000  0.000  0.099
    5  0.098  0.003  0.004  0.003  0.000  0.000  0.000  0.000  0.000  0.109
    6  0.082  0.003  0.001  0.003  0.000  0.000  0.000  0.000  0.000  0.090
    7  0.095  0.000  0.006  0.002  0.000  0.000  0.000  0.000  0.000  0.103
    8  0.009  0.000  0.002  0.001  0.000  0.000  0.000  0.000  0.000  0.011
    9  0.001  0.000  0.000  0.000  0.000  0.000  0.000  0.000  0.000  0.001
   10  0.001  0.000  0.000  0.000  0.000  0.000  0.000  0.000  0.000  0.001
   11  0.002  0.000  0.000  0.000  0.000  0.000  0.000  0.000  0.000  0.002
   12  0.008  0.000  0.002  0.000  0.000  0.000  0.000  0.000  0.000  0.010
   13  0.004  0.000  0.000  0.000  0.000  0.000  0.000  0.000  0.000  0.004
   14  0.005  0.000  0.000  0.000  0.000  0.000  0.000  0.000  0.000  0.006
   15  0.005  0.000  0.001  0.000  0.000  0.000  0.000  0.000  0.000  0.005
   16  0.019  0.001  0.005  0.001  0.000  0.000  0.000  0.000  0.000  0.026
tot    0.608  0.017  0.039  0.029  0.000  0.000  0.000  0.000  0.000  0.693
 
band     4 # energy  -18.79571870 # occ.  2.00000000
 
ion      s     py     pz     px    dxy    dyz    dz2    dxz  x2-y2    tot
    1  0.125  0.003  0.003  0.001  0.000  0.000  0.000  0.000  0.000  0.132
    2  0.154  0.001  0.004  0.000  0.000  0.000  0.000  0.000  0.000  0.159
    3  0.002  0.004  0.019  0.000  0.000  0.000  0.000  0.000  0.000  0.025
    4  0.073  0.003  0.003  0.008  0.000  0.000  0.000  0.000  0.000  0.086
    5  0.126  0.002  0.001  0.003  0.000  0.000  0.000  0.000  0.000  0.132
    6  0.031  0.000  0.009  0.000  0.000  0.000  0.000  0.000  0.000  0.041
    7  0.026  0.008  0.001  0.007  0.000  0.000  0.000  0.000  0.000  0.043
    8  0.010  0.000  0.005  0.002  0.000  0.000  0.000  0.000  0.000  0.017
    9  0.014  0.000  0.000  0.001  0.000  0.000  0.000  0.000  0.000  0.015
   10  0.012  0.001  0.000  0.000  0.000  0.000  0.000  0.000  0.000  0.013
   11  0.015  0.000  0.001  0.000  0.000  0.000  0.000  0.000  0.000  0.016
   12  0.003  0.000  0.001  0.000  0.000  0.000  0.000  0.000  0.000  0.003
   13  0.009  0.000  0.000  0.000  0.000  0.000  0.000  0.000  0.000  0.010
   14  0.004  0.000  0.000  0.000  0.000  0.000  0.000  0.000  0.000  0.004
   15  0.004  0.000  0.000  0.000  0.000  0.000  0.000  0.000  0.000  0.005
   16  0.001  0.000  0.006  0.001  0.000  0.000  0.000  0.000  0.000  0.008
tot    0.608  0.024  0.053  0.024  0.000  0.000  0.000  0.000  0.000  0.709
 
band     5 # energy  -17.55476234 # occ.  2.00000000
 
ion      s     py     pz     px    dxy    dyz    dz2    dxz  x2-y2    tot
    1  0.000  0.000  0.000  0.000  0.000  0.000  0.000  0.000  0.000  0.001
    2  0.001  0.002  0.011  0.008  0.000  0.000  0.000  0.000  0.000  0.023
    3  0.124  0.003  0.002  0.003  0.000  0.000  0.000  0.000  0.000  0.132
    4  0.099  0.004  0.007  0.002  0.000  0.000  0.000  0.000  0.000  0.112
    5  0.005  0.004  0.012  0.012  0.000  0.000  0.000  0.000  0.000  0.034
    6  0.160  0.001  0.001  0.000  0.000  0.000  0.000  0.000  0.000  0.162
    7  0.101  0.004  0.001  0.002  0.000  0.000  0.000  0.000  0.000  0.109
    8  0.014  0.000  0.018  0.002  0.000  0.000  0.000  0.000  0.000  0.034
    9  0.000  0.000  0.000  0.000  0.000  0.000  0.000  0.000  0.000  0.000
   10  0.000  0.000  0.000  0.000  0.000  0.000  0.000  0.000  0.000  0.000
   11  0.000  0.000  0.000  0.000  0.000  0.000  0.000  0.000  0.000  0.000
   12  0.025  0.000  0.005  0.000  0.000  0.000  0.000  0.000  0.000  0.030
   13  0.002  0.000  0.000  0.000  0.000  0.000  0.000  0.000  0.000  0.002
   14  0.027  0.001  0.000  0.002  0.000  0.000  0.000  0.000  0.000  0.030
   15  0.013  0.000  0.001  0.000  0.000  0.000  0.000  0.000  0.000  0.015
   16  0.024  0.010  0.021  0.015  0.000  0.000  0.000  0.000  0.000  0.071
tot    0.598  0.030  0.080  0.047  0.000  0.000  0.000  0.000  0.000  0.755
 
band     6 # energy  -16.41632213 # occ.  2.00000000
 
ion      s     py     pz     px    dxy    dyz    dz2    dxz  x2-y2    tot
    1  0.223  0.000  0.000  0.000  0.000  0.000  0.000  0.000  0.000  0.224
    2  0.004  0.027  0.026  0.006  0.000  0.000  0.000  0.000  0.000  0.062
    3  0.048  0.000  0.002  0.000  0.000  0.000  0.000  0.000  0.000  0.051
    4  0.011  0.013  0.002  0.015  0.000  0.000  0.000  0.000  0.000  0.041
    5  0.081  0.000  0.002  0.001  0.000  0.000  0.000  0.000  0.000  0.084
    6  0.001  0.003  0.016  0.001  0.000  0.000  0.000  0.000  0.000  0.021
    7  0.062  0.000  0.002  0.000  0.000  0.000  0.000  0.000  0.000  0.065
    8  0.002  0.001  0.002  0.004  0.000  0.000  0.000  0.000  0.000  0.009
    9  0.043  0.000  0.000  0.004  0.000  0.000  0.000  0.000  0.000  0.047
   10  0.036  0.003  0.000  0.000  0.000  0.000  0.000  0.000  0.000  0.040
   11  0.033  0.000  0.002  0.001  0.000  0.000  0.000  0.000  0.000  0.036
   12  0.009  0.000  0.002  0.000  0.000  0.000  0.000  0.000  0.000  0.011
   13  0.013  0.000  0.000  0.000  0.000  0.000  0.000  0.000  0.000  0.014
   14  0.000  0.000  0.000  0.000  0.000  0.000  0.000  0.000  0.000  0.000
   15  0.005  0.000  0.001  0.000  0.000  0.000  0.000  0.000  0.000  0.006
   16  0.004  0.006  0.010  0.008  0.000  0.000  0.000  0.000  0.000  0.027
tot    0.576  0.053  0.067  0.041  0.000  0.000  0.000  0.000  0.000  0.737
 
band     7 # energy  -15.16247146 # occ.  2.00000000
 
ion      s     py     pz     px    dxy    dyz    dz2    dxz  x2-y2    tot
    1  0.001  0.001  0.001  0.002  0.000  0.000  0.000  0.000  0.000  0.005
    2  0.001  0.010  0.016  0.025  0.000  0.000  0.000  0.000  0.000  0.052
    3  0.032  0.030  0.017  0.020  0.000  0.000  0.000  0.000  0.000  0.099
    4  0.059  0.000  0.000  0.000  0.000  0.000  0.000  0.000  0.000  0.059
    5  0.012  0.008  0.011  0.019  0.000  0.000  0.000  0.000  0.000  0.050
    6  0.051  0.005  0.011  0.004  0.000  0.000  0.000  0.000  0.000  0.072
    7  0.055  0.006  0.003  0.005  0.000  0.000  0.000  0.000  0.000  0.069
    8  0.013  0.000  0.038  0.006  0.000  0.000  0.000  0.000  0.000  0.057
    9  0.001  0.000  0.000  0.000  0.000  0.000  0.000  0.000  0.000  0.001
   10  0.001  0.000  0.000  0.000  0.000  0.000  0.000  0.000  0.000  0.001
   11  0.001  0.000  0.000  0.000  0.000  0.000  0.000  0.000  0.000  0.001
   12  0.074  0.000  0.011  0.000  0.000  0.000  0.000  0.000  0.000  0.085
   13  0.008  0.000  0.001  0.000  0.000  0.000  0.000  0.000  0.000  0.008
   14  0.023  0.001  0.000  0.002  0.000  0.000  0.000  0.000  0.000  0.025
   15  0.015  0.000  0.001  0.000  0.000  0.000  0.000  0.000  0.000  0.016
   16  0.001  0.024  0.140  0.047  0.000  0.000  0.000  0.000  0.000  0.212
tot    0.346  0.086  0.250  0.130  0.000  0.000  0.000  0.000  0.000  0.812
 
band     8 # energy  -14.07027108 # occ.  2.00000000
 
ion      s     py     pz     px    dxy    dyz    dz2    dxz  x2-y2    tot
    1  0.035  0.005  0.005  0.001  0.000  0.000  0.000  0.000  0.000  0.046
    2  0.066  0.004  0.005  0.001  0.000  0.000  0.000  0.000  0.000  0.075
    3  0.009  0.003  0.072  0.002  0.000  0.000  0.000  0.000  0.000  0.086
    4  0.012  0.037  0.000  0.061  0.000  0.000  0.000  0.000  0.000  0.111
    5  0.058  0.000  0.008  0.004  0.000  0.000  0.000  0.000  0.000  0.071
    6  0.059  0.000  0.018  0.006  0.000  0.000  0.000  0.000  0.000  0.083
    7  0.003  0.021  0.000  0.025  0.000  0.000  0.000  0.000  0.000  0.049
    8  0.009  0.010  0.072  0.000  0.000  0.000  0.000  0.000  0.000  0.091
    9  0.014  0.000  0.000  0.001  0.000  0.000  0.000  0.000  0.000  0.015
   10  0.011  0.001  0.000  0.000  0.000  0.000  0.000  0.000  0.000  0.012
   11  0.010  0.000  0.000  0.000  0.000  0.000  0.000  0.000  0.000  0.011
   12  0.003  0.000  0.001  0.000  0.000  0.000  0.000  0.000  0.000  0.004
   13  0.012  0.000  0.000  0.000  0.000  0.000  0.000  0.000  0.000  0.013
   14  0.034  0.001  0.000  0.002  0.000  0.000  0.000  0.000  0.000  0.037
   15  0.005  0.000  0.000  0.000  0.000  0.000  0.000  0.000  0.000  0.005
   16  0.009  0.016  0.000  0.011  0.000  0.000  0.000  0.000  0.000  0.036
tot    0.348  0.099  0.184  0.116  0.000  0.000  0.000  0.000  0.000  0.747
 
band     9 # energy  -13.28701479 # occ.  2.00000000
 
ion      s     py     pz     px    dxy    dyz    dz2    dxz  x2-y2    tot
    1  0.005  0.002  0.000  0.001  0.000  0.000  0.000  0.000  0.000  0.009
    2  0.001  0.000  0.012  0.001  0.000  0.000  0.000  0.000  0.000  0.013
    3  0.012  0.038  0.000  0.050  0.000  0.000  0.000  0.000  0.000  0.100
    4  0.005  0.023  0.084  0.005  0.000  0.000  0.000  0.000  0.000  0.117
    5  0.003  0.000  0.031  0.002  0.000  0.000  0.000  0.000  0.000  0.036
    6  0.005  0.000  0.009  0.000  0.000  0.000  0.000  0.000  0.000  0.015
    7  0.034  0.000  0.017  0.001  0.000  0.000  0.000  0.000  0.000  0.051
    8  0.013  0.013  0.101  0.076  0.000  0.000  0.000  0.000  0.000  0.204
    9  0.003  0.000  0.000  0.000  0.000  0.000  0.000  0.000  0.000  0.004
   10  0.003  0.000  0.000  0.000  0.000  0.000  0.000  0.000  0.000  0.003
   11  0.000  0.000  0.000  0.000  0.000  0.000  0.000  0.000  0.000  0.000
   12  0.046  0.000  0.005  0.000  0.000  0.000  0.000  0.000  0.000  0.051
   13  0.005  0.000  0.000  0.000  0.000  0.000  0.000  0.000  0.000  0.006
   14  0.000  0.000  0.000  0.000  0.000  0.000  0.000  0.000  0.000  0.000
   15  0.030  0.000  0.002  0.000  0.000  0.000  0.000  0.000  0.000  0.032
   16  0.005  0.014  0.102  0.024  0.000  0.000  0.000  0.000  0.000  0.146
tot    0.170  0.092  0.364  0.161  0.000  0.000  0.000  0.000  0.000  0.786
 
band    10 # energy  -12.17900417 # occ.  2.00000000
 
ion      s     py     pz     px    dxy    dyz    dz2    dxz  x2-y2    tot
    1  0.007  0.008  0.013  0.001  0.000  0.000  0.000  0.000  0.000  0.029
    2  0.064  0.001  0.003  0.002  0.000  0.000  0.000  0.000  0.000  0.069
    3  0.000  0.001  0.018  0.007  0.000  0.000  0.000  0.000  0.000  0.026
    4  0.002  0.006  0.049  0.037  0.000  0.000  0.000  0.000  0.000  0.094
    5  0.001  0.027  0.001  0.043  0.000  0.000  0.000  0.000  0.000  0.073
    6  0.010  0.021  0.012  0.021  0.000  0.000  0.000  0.000  0.000  0.065
    7  0.027  0.009  0.003  0.010  0.000  0.000  0.000  0.000  0.000  0.048
    8  0.010  0.003  0.192  0.017  0.000  0.000  0.000  0.000  0.000  0.222
    9  0.007  0.000  0.000  0.001  0.000  0.000  0.000  0.000  0.000  0.007
   10  0.005  0.000  0.000  0.000  0.000  0.000  0.000  0.000  0.000  0.005
   11  0.008  0.000  0.000  0.000  0.000  0.000  0.000  0.000  0.000  0.008
   12  0.016  0.000  0.002  0.000  0.000  0.000  0.000  0.000  0.000  0.018
   13  0.012  0.000  0.001  0.000  0.000  0.000  0.000  0.000  0.000  0.013
   14  0.034  0.001  0.001  0.002  0.000  0.000  0.000  0.000  0.000  0.038
   15  0.022  0.000  0.001  0.000  0.000  0.000  0.000  0.000  0.000  0.023
   16  0.001  0.013  0.027  0.014  0.000  0.000  0.000  0.000  0.000  0.055
tot    0.225  0.091  0.323  0.154  0.000  0.000  0.000  0.000  0.000  0.792
 
band    11 # energy  -11.72825776 # occ.  2.00000000
 
ion      s     py     pz     px    dxy    dyz    dz2    dxz  x2-y2    tot
    1  0.002  0.013  0.002  0.022  0.000  0.000  0.000  0.000  0.000  0.039
    2  0.000  0.001  0.050  0.017  0.000  0.000  0.000  0.000  0.000  0.068
    3  0.003  0.000  0.061  0.007  0.000  0.000  0.000  0.000  0.000  0.071
    4  0.003  0.014  0.010  0.010  0.000  0.000  0.000  0.000  0.000  0.036
    5  0.025  0.022  0.000  0.029  0.000  0.000  0.000  0.000  0.000  0.076
    6  0.014  0.012  0.036  0.004  0.000  0.000  0.000  0.000  0.000  0.066
    7  0.001  0.032  0.044  0.013  0.000  0.000  0.000  0.000  0.000  0.091
    8  0.001  0.018  0.014  0.046  0.000  0.000  0.000  0.000  0.000  0.080
    9  0.015  0.000  0.000  0.001  0.000  0.000  0.000  0.000  0.000  0.016
   10  0.008  0.000  0.000  0.000  0.000  0.000  0.000  0.000  0.000  0.009
   11  0.010  0.000  0.001  0.000  0.000  0.000  0.000  0.000  0.000  0.010
   12  0.001  0.001  0.000  0.000  0.000  0.000  0.000  0.000  0.000  0.002
   13  0.048  0.001  0.001  0.001  0.000  0.000  0.000  0.000  0.000  0.051
   14  0.000  0.000  0.000  0.000  0.000  0.000  0.000  0.000  0.000  0.001
   15  0.018  0.000  0.001  0.001  0.000  0.000  0.000  0.000  0.000  0.020
   16  0.007  0.039  0.002  0.022  0.000  0.000  0.000  0.000  0.000  0.071
tot    0.155  0.153  0.224  0.174  0.000  0.000  0.000  0.000  0.000  0.706
 
band    12 # energy  -10.68239101 # occ.  2.00000000
 
ion      s     py     pz     px    dxy    dyz    dz2    dxz  x2-y2    tot
    1  0.000  0.001  0.003  0.006  0.000  0.000  0.000  0.000  0.000  0.009
    2  0.000  0.011  0.001  0.002  0.000  0.000  0.000  0.000  0.000  0.014
    3  0.000  0.027  0.002  0.021  0.000  0.000  0.000  0.000  0.000  0.050
    4  0.000  0.045  0.004  0.042  0.000  0.000  0.000  0.000  0.000  0.091
    5  0.000  0.010  0.005  0.003  0.000  0.000  0.000  0.000  0.000  0.019
    6  0.000  0.000  0.002  0.007  0.000  0.000  0.000  0.000  0.000  0.009
    7  0.000  0.001  0.000  0.005  0.000  0.000  0.000  0.000  0.000  0.005
    8  0.000  0.187  0.043  0.143  0.000  0.000  0.000  0.000  0.000  0.374
    9  0.006  0.000  0.000  0.000  0.000  0.000  0.000  0.000  0.000  0.006
   10  0.002  0.000  0.000  0.000  0.000  0.000  0.000  0.000  0.000  0.002
   11  0.000  0.000  0.000  0.000  0.000  0.000  0.000  0.000  0.000  0.000
   12  0.000  0.000  0.000  0.001  0.000  0.000  0.000  0.000  0.000  0.001
   13  0.000  0.000  0.000  0.000  0.000  0.000  0.000  0.000  0.000  0.000
   14  0.003  0.000  0.000  0.000  0.000  0.000  0.000  0.000  0.000  0.003
   15  0.000  0.000  0.000  0.000  0.000  0.000  0.000  0.000  0.000  0.000
   16  0.001  0.017  0.004  0.031  0.000  0.000  0.000  0.000  0.000  0.053
tot    0.013  0.299  0.064  0.262  0.000  0.000  0.000  0.000  0.000  0.638
 
band    13 # energy  -10.34009761 # occ.  2.00000000
 
ion      s     py     pz     px    dxy    dyz    dz2    dxz  x2-y2    tot
    1  0.001  0.009  0.007  0.000  0.000  0.000  0.000  0.000  0.000  0.016
    2  0.002  0.012  0.000  0.027  0.000  0.000  0.000  0.000  0.000  0.040
    3  0.010  0.008  0.003  0.007  0.000  0.000  0.000  0.000  0.000  0.028
    4  0.011  0.004  0.015  0.004  0.000  0.000  0.000  0.000  0.000  0.034
    5  0.004  0.000  0.052  0.010  0.000  0.000  0.000  0.000  0.000  0.065
    6  0.000  0.047  0.046  0.087  0.000  0.000  0.000  0.000  0.000  0.180
    7  0.003  0.004  0.069  0.014  0.000  0.000  0.000  0.000  0.000  0.090
    8  0.000  0.041  0.051  0.001  0.000  0.000  0.000  0.000  0.000  0.093
    9  0.001  0.000  0.000  0.000  0.000  0.000  0.000  0.000  0.000  0.001
   10  0.004  0.000  0.000  0.000  0.000  0.000  0.000  0.000  0.000  0.005
   11  0.002  0.000  0.000  0.000  0.000  0.000  0.000  0.000  0.000  0.003
   12  0.005  0.000  0.001  0.000  0.000  0.000  0.000  0.000  0.000  0.006
   13  0.001  0.000  0.000  0.000  0.000  0.000  0.000  0.000  0.000  0.001
   14  0.107  0.002  0.000  0.005  0.000  0.000  0.000  0.000  0.000  0.114
   15  0.039  0.000  0.002  0.000  0.000  0.000  0.000  0.000  0.000  0.041
   16  0.001  0.005  0.010  0.009  0.000  0.000  0.000  0.000  0.000  0.024
tot    0.190  0.132  0.255  0.164  0.000  0.000  0.000  0.000  0.000  0.743
 
band    14 # energy   -9.86342073 # occ.  2.00000000
 
ion      s     py     pz     px    dxy    dyz    dz2    dxz  x2-y2    tot
    1  0.000  0.002  0.008  0.153  0.000  0.000  0.000  0.000  0.000  0.163
    2  0.003  0.033  0.013  0.011  0.000  0.000  0.000  0.000  0.000  0.061
    3  0.004  0.007  0.007  0.000  0.000  0.000  0.000  0.000  0.000  0.018
    4  0.003  0.006  0.002  0.001  0.000  0.000  0.000  0.000  0.000  0.012
    5  0.005  0.018  0.023  0.017  0.000  0.000  0.000  0.000  0.000  0.062
    6  0.011  0.000  0.002  0.002  0.000  0.000  0.000  0.000  0.000  0.016
    7  0.012  0.007  0.006  0.000  0.000  0.000  0.000  0.000  0.000  0.026
    8  0.000  0.072  0.000  0.005  0.000  0.000  0.000  0.000  0.000  0.077
    9  0.120  0.000  0.000  0.006  0.000  0.000  0.000  0.000  0.000  0.126
   10  0.002  0.000  0.000  0.001  0.000  0.000  0.000  0.000  0.000  0.004
   11  0.018  0.000  0.002  0.000  0.000  0.000  0.000  0.000  0.000  0.020
   12  0.001  0.000  0.000  0.000  0.000  0.000  0.000  0.000  0.000  0.002
   13  0.057  0.001  0.001  0.001  0.000  0.000  0.000  0.000  0.000  0.059
   14  0.010  0.000  0.000  0.000  0.000  0.000  0.000  0.000  0.000  0.011
   15  0.015  0.000  0.001  0.000  0.000  0.000  0.000  0.000  0.000  0.016
   16  0.001  0.002  0.001  0.011  0.000  0.000  0.000  0.000  0.000  0.015
tot    0.263  0.149  0.066  0.209  0.000  0.000  0.000  0.000  0.000  0.687
 
band    15 # energy   -9.61246609 # occ.  2.00000000
 
ion      s     py     pz     px    dxy    dyz    dz2    dxz  x2-y2    tot
    1  0.000  0.127  0.000  0.007  0.000  0.000  0.000  0.000  0.000  0.134
    2  0.005  0.000  0.059  0.017  0.000  0.000  0.000  0.000  0.000  0.081
    3  0.007  0.005  0.001  0.018  0.000  0.000  0.000  0.000  0.000  0.031
    4  0.005  0.000  0.001  0.006  0.000  0.000  0.000  0.000  0.000  0.012
    5  0.001  0.021  0.029  0.016  0.000  0.000  0.000  0.000  0.000  0.067
    6  0.008  0.002  0.005  0.000  0.000  0.000  0.000  0.000  0.000  0.015
    7  0.009  0.000  0.000  0.005  0.000  0.000  0.000  0.000  0.000  0.015
    8  0.000  0.066  0.006  0.020  0.000  0.000  0.000  0.000  0.000  0.092
    9  0.005  0.001  0.000  0.000  0.000  0.000  0.000  0.000  0.000  0.007
   10  0.089  0.003  0.001  0.000  0.000  0.000  0.000  0.000  0.000  0.093
   11  0.000  0.001  0.000  0.000  0.000  0.000  0.000  0.000  0.000  0.001
   12  0.002  0.000  0.000  0.000  0.000  0.000  0.000  0.000  0.000  0.003
   13  0.056  0.001  0.001  0.001  0.000  0.000  0.000  0.000  0.000  0.058
   14  0.004  0.000  0.000  0.000  0.000  0.000  0.000  0.000  0.000  0.004
   15  0.004  0.000  0.000  0.000  0.000  0.000  0.000  0.000  0.000  0.004
   16  0.002  0.016  0.011  0.020  0.000  0.000  0.000  0.000  0.000  0.049
tot    0.198  0.244  0.113  0.110  0.000  0.000  0.000  0.000  0.000  0.665
 
band    16 # energy   -9.31093782 # occ.  2.00000000
 
ion      s     py     pz     px    dxy    dyz    dz2    dxz  x2-y2    tot
    1  0.000  0.003  0.092  0.002  0.000  0.000  0.000  0.000  0.000  0.097
    2  0.001  0.056  0.004  0.016  0.000  0.000  0.000  0.000  0.000  0.078
    3  0.009  0.008  0.000  0.001  0.000  0.000  0.000  0.000  0.000  0.018
    4  0.001  0.000  0.000  0.001  0.000  0.000  0.000  0.000  0.000  0.003
    5  0.008  0.003  0.000  0.003  0.000  0.000  0.000  0.000  0.000  0.013
    6  0.001  0.008  0.000  0.007  0.000  0.000  0.000  0.000  0.000  0.016
    7  0.001  0.008  0.010  0.023  0.000  0.000  0.000  0.000  0.000  0.041
    8  0.000  0.078  0.039  0.223  0.000  0.000  0.000  0.000  0.000  0.340
    9  0.001  0.000  0.001  0.000  0.000  0.000  0.000  0.000  0.000  0.002
   10  0.001  0.000  0.001  0.000  0.000  0.000  0.000  0.000  0.000  0.002
   11  0.053  0.000  0.001  0.001  0.000  0.000  0.000  0.000  0.000  0.056
   12  0.000  0.000  0.000  0.000  0.000  0.000  0.000  0.000  0.000  0.001
   13  0.000  0.000  0.000  0.000  0.000  0.000  0.000  0.000  0.000  0.000
   14  0.015  0.000  0.000  0.001  0.000  0.000  0.000  0.000  0.000  0.015
   15  0.016  0.000  0.001  0.000  0.000  0.000  0.000  0.000  0.000  0.017
   16  0.000  0.024  0.004  0.002  0.000  0.000  0.000  0.000  0.000  0.029
tot    0.106  0.190  0.153  0.279  0.000  0.000  0.000  0.000  0.000  0.728
 
band    17 # energy   -8.97874483 # occ.  2.00000000
 
ion      s     py     pz     px    dxy    dyz    dz2    dxz  x2-y2    tot
    1  0.000  0.026  0.012  0.040  0.000  0.000  0.000  0.000  0.000  0.077
    2  0.004  0.005  0.010  0.001  0.000  0.000  0.000  0.000  0.000  0.019
    3  0.000  0.030  0.020  0.000  0.000  0.000  0.000  0.000  0.000  0.051
    4  0.002  0.001  0.002  0.001  0.000  0.000  0.000  0.000  0.000  0.005
    5  0.000  0.000  0.000  0.000  0.000  0.000  0.000  0.000  0.000  0.000
    6  0.001  0.006  0.001  0.004  0.000  0.000  0.000  0.000  0.000  0.012
    7  0.000  0.001  0.010  0.000  0.000  0.000  0.000  0.000  0.000  0.011
    8  0.000  0.111  0.003  0.004  0.000  0.000  0.000  0.000  0.000  0.117
    9  0.026  0.000  0.000  0.001  0.000  0.000  0.000  0.000  0.000  0.027
   10  0.016  0.000  0.000  0.000  0.000  0.000  0.000  0.000  0.000  0.017
   11  0.027  0.000  0.001  0.000  0.000  0.000  0.000  0.000  0.000  0.028
   12  0.014  0.000  0.001  0.004  0.000  0.000  0.000  0.000  0.000  0.020
   13  0.000  0.000  0.000  0.000  0.000  0.000  0.000  0.000  0.000  0.000
   14  0.004  0.000  0.000  0.000  0.000  0.000  0.000  0.000  0.000  0.004
   15  0.008  0.000  0.000  0.000  0.000  0.000  0.000  0.000  0.000  0.008
   16  0.025  0.012  0.127  0.179  0.000  0.000  0.000  0.000  0.000  0.343
tot    0.127  0.192  0.187  0.234  0.000  0.000  0.000  0.000  0.000  0.739
 
band    18 # energy   -8.66207582 # occ.  2.00000000
 
ion      s     py     pz     px    dxy    dyz    dz2    dxz  x2-y2    tot
    1  0.000  0.010  0.053  0.021  0.000  0.000  0.000  0.000  0.000  0.085
    2  0.003  0.010  0.001  0.005  0.000  0.000  0.000  0.000  0.000  0.019
    3  0.000  0.010  0.001  0.043  0.000  0.000  0.000  0.000  0.000  0.054
    4  0.001  0.005  0.001  0.000  0.000  0.000  0.000  0.000  0.000  0.007
    5  0.000  0.001  0.011  0.001  0.000  0.000  0.000  0.000  0.000  0.013
    6  0.000  0.005  0.017  0.005  0.000  0.000  0.000  0.000  0.000  0.027
    7  0.000  0.010  0.011  0.004  0.000  0.000  0.000  0.000  0.000  0.026
    8  0.000  0.018  0.010  0.017  0.000  0.000  0.000  0.000  0.000  0.045
    9  0.030  0.000  0.000  0.001  0.000  0.000  0.000  0.000  0.000  0.032
   10  0.034  0.002  0.000  0.000  0.000  0.000  0.000  0.000  0.000  0.035
   11  0.010  0.000  0.000  0.001  0.000  0.000  0.000  0.000  0.000  0.011
   12  0.010  0.004  0.001  0.000  0.000  0.000  0.000  0.000  0.000  0.015
   13  0.004  0.000  0.000  0.000  0.000  0.000  0.000  0.000  0.000  0.004
   14  0.003  0.000  0.000  0.000  0.000  0.000  0.000  0.000  0.000  0.003
   15  0.006  0.000  0.000  0.000  0.000  0.000  0.000  0.000  0.000  0.006
   16  0.013  0.237  0.036  0.032  0.000  0.000  0.000  0.000  0.000  0.316
tot    0.115  0.311  0.141  0.133  0.000  0.000  0.000  0.000  0.000  0.699
 
band    19 # energy   -8.26307852 # occ.  2.00000000
 
ion      s     py     pz     px    dxy    dyz    dz2    dxz  x2-y2    tot
    1  0.000  0.025  0.076  0.019  0.000  0.000  0.000  0.000  0.000  0.120
    2  0.000  0.000  0.014  0.007  0.000  0.000  0.000  0.000  0.000  0.022
    3  0.000  0.010  0.025  0.000  0.000  0.000  0.000  0.000  0.000  0.036
    4  0.001  0.010  0.006  0.013  0.000  0.000  0.000  0.000  0.000  0.030
    5  0.000  0.001  0.057  0.005  0.000  0.000  0.000  0.000  0.000  0.063
    6  0.000  0.005  0.060  0.000  0.000  0.000  0.000  0.000  0.000  0.065
    7  0.001  0.017  0.036  0.005  0.000  0.000  0.000  0.000  0.000  0.059
    8  0.000  0.038  0.015  0.083  0.000  0.000  0.000  0.000  0.000  0.135
    9  0.003  0.000  0.001  0.000  0.000  0.000  0.000  0.000  0.000  0.004
   10  0.037  0.001  0.000  0.001  0.000  0.000  0.000  0.000  0.000  0.038
   11  0.094  0.000  0.002  0.002  0.000  0.000  0.000  0.000  0.000  0.098
   12  0.004  0.000  0.000  0.000  0.000  0.000  0.000  0.000  0.000  0.004
   13  0.008  0.000  0.000  0.000  0.000  0.000  0.000  0.000  0.000  0.009
   14  0.001  0.000  0.001  0.000  0.000  0.000  0.000  0.000  0.000  0.001
   15  0.023  0.000  0.001  0.000  0.000  0.000  0.000  0.000  0.000  0.024
   16  0.003  0.002  0.011  0.013  0.000  0.000  0.000  0.000  0.000  0.029
tot    0.176  0.110  0.304  0.148  0.000  0.000  0.000  0.000  0.000  0.738
 
band    20 # energy   -8.12759038 # occ.  2.00000000
 
ion      s     py     pz     px    dxy    dyz    dz2    dxz  x2-y2    tot
    1  0.000  0.016  0.002  0.025  0.000  0.000  0.000  0.000  0.000  0.043
    2  0.003  0.024  0.009  0.075  0.000  0.000  0.000  0.000  0.000  0.111
    3  0.014  0.001  0.013  0.004  0.000  0.000  0.000  0.000  0.000  0.032
    4  0.006  0.002  0.000  0.015  0.000  0.000  0.000  0.000  0.000  0.023
    5  0.001  0.015  0.038  0.008  0.000  0.000  0.000  0.000  0.000  0.061
    6  0.000  0.006  0.013  0.062  0.000  0.000  0.000  0.000  0.000  0.082
    7  0.002  0.057  0.030  0.033  0.000  0.000  0.000  0.000  0.000  0.123
    8  0.000  0.010  0.000  0.060  0.000  0.000  0.000  0.000  0.000  0.070
    9  0.018  0.000  0.000  0.001  0.000  0.000  0.000  0.000  0.000  0.019
   10  0.009  0.000  0.000  0.000  0.000  0.000  0.000  0.000  0.000  0.009
   11  0.029  0.000  0.001  0.000  0.000  0.000  0.000  0.000  0.000  0.030
   12  0.005  0.000  0.001  0.000  0.000  0.000  0.000  0.000  0.000  0.006
   13  0.001  0.000  0.000  0.000  0.000  0.000  0.000  0.000  0.000  0.001
   14  0.067  0.002  0.000  0.002  0.000  0.000  0.000  0.000  0.000  0.071
   15  0.048  0.000  0.001  0.000  0.000  0.000  0.000  0.000  0.000  0.050
   16  0.002  0.012  0.012  0.000  0.000  0.000  0.000  0.000  0.000  0.026
tot    0.205  0.144  0.122  0.286  0.000  0.000  0.000  0.000  0.000  0.757
 
band    21 # energy   -7.64242942 # occ.  2.00000000
 
ion      s     py     pz     px    dxy    dyz    dz2    dxz  x2-y2    tot
    1  0.001  0.034  0.002  0.000  0.000  0.000  0.000  0.000  0.000  0.037
    2  0.000  0.026  0.007  0.001  0.000  0.000  0.000  0.000  0.000  0.034
    3  0.000  0.010  0.019  0.005  0.000  0.000  0.000  0.000  0.000  0.034
    4  0.000  0.045  0.002  0.005  0.000  0.000  0.000  0.000  0.000  0.051
    5  0.001  0.002  0.018  0.063  0.000  0.000  0.000  0.000  0.000  0.084
    6  0.000  0.077  0.007  0.003  0.000  0.000  0.000  0.000  0.000  0.087
    7  0.001  0.000  0.031  0.042  0.000  0.000  0.000  0.000  0.000  0.075
    8  0.000  0.047  0.003  0.000  0.000  0.000  0.000  0.000  0.000  0.050
    9  0.000  0.000  0.000  0.000  0.000  0.000  0.000  0.000  0.000  0.001
   10  0.020  0.000  0.000  0.000  0.000  0.000  0.000  0.000  0.000  0.021
   11  0.000  0.000  0.000  0.000  0.000  0.000  0.000  0.000  0.000  0.000
   12  0.006  0.000  0.000  0.002  0.000  0.000  0.000  0.000  0.000  0.008
   13  0.032  0.001  0.000  0.000  0.000  0.000  0.000  0.000  0.000  0.033
   14  0.010  0.000  0.000  0.001  0.000  0.000  0.000  0.000  0.000  0.012
   15  0.010  0.000  0.000  0.001  0.000  0.000  0.000  0.000  0.000  0.011
   16  0.005  0.001  0.031  0.076  0.000  0.000  0.000  0.000  0.000  0.113