  16  16   1   0
  0.6439303E+02  0.7759100E-09  0.1173340E-08  0.1131680E-08  0.2000000E-15
  1.000000000000000E-004
  CAR 
 QM9                                     
      3.62747603    -31.72576490  301     -4.14287171      1.00000000
    -31.726  0.0000E+00  0.0000E+00
    -31.608  0.0000E+00  0.0000E+00
    -31.490  0.0000E+00  0.0000E+00
    -31.372  0.0000E+00  0.0000E+00
    -31.254  0.0000E+00  0.0000E+00
    -31.137  0.0000E+00  0.0000E+00
    -31.019  0.0000E+00  0.0000E+00
    -30.901  0.0000E+00  0.0000E+00
    -30.783  0.0000E+00  0.0000E+00
    -30.665  0.9327E-14  0.1099E-14
    -30.547  0.1153E-08  0.1359E-09
    -30.429  0.9456E-05  0.1114E-05
    -30.312  0.5412E-02  0.6389E-03
    -30.194  0.2397E+00  0.2889E-01
    -30.076  0.9900E+00  0.1456E+00
    -29.958  0.4425E+00  0.1977E+00
    -29.840  0.1949E-01  0.2000E+00
    -29.722  0.6937E-04  0.2000E+00
    -29.605  0.1760E-07  0.2000E+00
    -29.487  0.3000E-12  0.2000E+00
    -29.369  0.0000E+00  0.2000E+00
    -29.251  0.0000E+00  0.2000E+00
    -29.133  0.0000E+00  0.2000E+00
    -29.015  0.0000E+00  0.2000E+00
    -28.898  0.0000E+00  0.2000E+00
    -28.780  0.0000E+00  0.2000E+00
    -28.662  0.0000E+00  0.2000E+00
    -28.544  0.0000E+00  0.2000E+00
    -28.426  0.0000E+00  0.2000E+00
    -28.308  0.0000E+00  0.2000E+00
    -28.190  0.0000E+00  0.2000E+00
    -28.073  0.0000E+00  0.2000E+00
    -27.955  0.0000E+00  0.2000E+00
    -27.837  0.0000E+00  0.2000E+00
    -27.719  0.0000E+00  0.2000E+00
    -27.601  0.0000E+00  0.2000E+00
    -27.483  0.0000E+00  0.2000E+00
    -27.366  0.0000E+00  0.2000E+00
    -27.248  0.0000E+00  0.2000E+00
    -27.130  0.0000E+00  0.2000E+00
    -27.012  0.0000E+00  0.2000E+00
    -26.894  0.0000E+00  0.2000E+00
    -26.776  0.0000E+00  0.2000E+00
    -26.658  0.0000E+00  0.2000E+00
    -26.541  0.0000E+00  0.2000E+00
    -26.423  0.0000E+00  0.2000E+00
    -26.305  0.0000E+00  0.2000E+00
    -26.187  0.0000E+00  0.2000E+00
    -26.069  0.0000E+00  0.2000E+00
    -25.951  0.0000E+00  0.2000E+00
    -25.834  0.0000E+00  0.2000E+00
    -25.716  0.0000E+00  0.2000E+00
    -25.598  0.0000E+00  0.2000E+00
    -25.480  0.0000E+00  0.2000E+00
    -25.362  0.0000E+00  0.2000E+00
    -25.244  0.0000E+00  0.2000E+00
    -25.126  0.0000E+00  0.2000E+00
    -25.009  0.0000E+00  0.2000E+00
    -24.891  0.0000E+00  0.2000E+00
    -24.773  0.0000E+00  0.2000E+00
    -24.655  0.0000E+00  0.2000E+00
    -24.537  0.0000E+00  0.2000E+00
    -24.419  0.0000E+00  0.2000E+00
    -24.302  0.0000E+00  0.2000E+00
    -24.184  0.0000E+00  0.2000E+00
    -24.066  0.0000E+00  0.2000E+00
    -23.948  0.0000E+00  0.2000E+00
    -23.830  0.0000E+00  0.2000E+00
    -23.712  0.0000E+00  0.2000E+00
    -23.595  0.0000E+00  0.2000E+00
    -23.477  0.9592E-12  0.2000E+00
    -23.359  0.4345E-07  0.2000E+00
    -23.241  0.1328E-03  0.2000E+00
    -23.123  0.2916E-01  0.2035E+00
    -23.005  0.5262E+00  0.2655E+00
    -22.887  0.9526E+00  0.3777E+00
    -22.770  0.1857E+00  0.3996E+00
    -22.652  0.3309E-02  0.4000E+00
    -22.534  0.6625E-05  0.4000E+00
    -22.416  0.1997E-02  0.4002E+00
    -22.298  0.1416E+00  0.4169E+00
    -22.180  0.8998E+00  0.5230E+00
    -22.063  0.6112E+00  0.5950E+00
    -21.945  0.4234E-01  0.6000E+00
    -21.827  0.2452E-03  0.6000E+00
    -21.709  0.1029E-06  0.6000E+00
    -21.591  0.2927E-11  0.6000E+00
    -21.473  0.0000E+00  0.6000E+00
    -21.355  0.0000E+00  0.6000E+00
    -21.238  0.0000E+00  0.6000E+00
    -21.120  0.0000E+00  0.6000E+00
    -21.002  0.0000E+00  0.6000E+00
    -20.884  0.0000E+00  0.6000E+00
    -20.766  0.0000E+00  0.6000E+00
    -20.648  0.0000E+00  0.6000E+00
    -20.531  0.0000E+00  0.6000E+00
    -20.413  0.0000E+00  0.6000E+00
    -20.295  0.0000E+00  0.6000E+00
    -20.177  0.0000E+00  0.6000E+00
    -20.059  0.0000E+00  0.6000E+00
    -19.941  0.1429E-10  0.6000E+00
    -19.824  0.3474E-06  0.6000E+00
    -19.706  0.5757E-03  0.6001E+00
    -19.588  0.7018E-01  0.6083E+00
    -19.470  0.7339E+00  0.6948E+00
    -19.352  0.7998E+00  0.7891E+00
    -19.234  0.9176E-01  0.7999E+00
    -19.116  0.9175E-03  0.8000E+00
    -18.999  0.6806E-06  0.8000E+00
    -18.881  0.3456E-10  0.8000E+00
    -18.763  0.0000E+00  0.8000E+00
    -18.645  0.4522E-14  0.8000E+00
    -18.527  0.6467E-09  0.8000E+00
    -18.409  0.6156E-05  0.8000E+00
    -18.292  0.4075E-02  0.8005E+00
    -18.174  0.2072E+00  0.8249E+00
    -18.056  0.9704E+00  0.9392E+00
    -17.938  0.4907E+00  0.9971E+00
    -17.820  0.2471E-01  0.1000E+01
    -17.702  0.1015E-03  0.1000E+01
    -17.584  0.2988E-07  0.1000E+01
    -17.467  0.5920E-12  0.1000E+01
    -17.349  0.0000E+00  0.1000E+01
    -17.231  0.6124E-14  0.1000E+01
    -17.113  0.8236E-09  0.1000E+01
    -16.995  0.7368E-05  0.1000E+01
    -16.877  0.4591E-02  0.1001E+01
    -16.760  0.2203E+00  0.1027E+01
    -16.642  0.9793E+00  0.1142E+01
    -16.524  0.4704E+00  0.1197E+01
    -16.406  0.2241E-01  0.1200E+01
    -16.288  0.8673E-04  0.1200E+01
    -16.170  0.2399E-07  0.1200E+01
    -16.052  0.4466E-12  0.1200E+01
    -15.935  0.0000E+00  0.1200E+01
    -15.817  0.0000E+00  0.1200E+01
    -15.699  0.0000E+00  0.1200E+01
    -15.581  0.0000E+00  0.1200E+01
    -15.463  0.8479E-15  0.1200E+01
    -15.345  0.1725E-09  0.1200E+01
    -15.228  0.2292E-05  0.1200E+01
    -15.110  0.2103E-02  0.1200E+01
    -14.992  0.1456E+00  0.1217E+01
    -14.874  0.9070E+00  0.1324E+01
    -14.756  0.7118E+00  0.1408E+01
    -14.638  0.8822E+00  0.1512E+01
    -14.521  0.6872E+00  0.1593E+01
    -14.403  0.5798E-01  0.1600E+01
    -14.285  0.4155E-03  0.1600E+01
    -14.167  0.2178E-06  0.1600E+01
    -14.049  0.7760E-11  0.1600E+01
    -13.931  0.0000E+00  0.1600E+01
    -13.813  0.0000E+00  0.1600E+01
    -13.696  0.0000E+00  0.1600E+01
    -13.578  0.9421E-16  0.1600E+01
    -13.460  0.1846E-10  0.1600E+01
    -13.342  0.4224E-06  0.1600E+01
    -13.224  0.6595E-03  0.1600E+01
    -13.106  0.7593E-01  0.1609E+01
    -12.989  0.7534E+00  0.1698E+01
    -12.871  0.7813E+00  0.1790E+01
    -12.753  0.8850E-01  0.1800E+01
    -12.635  0.1902E+00  0.1823E+01
    -12.517  0.9560E+00  0.1935E+01
    -12.399  0.5199E+00  0.1997E+01
    -12.281  0.2833E-01  0.2000E+01
    -12.164  0.1475E-03  0.2000E+01
    -12.046  0.9040E-02  0.2001E+01
    -11.928  0.3094E+00  0.2038E+01
    -11.810  0.1009E+01  0.2156E+01
    -11.692  0.3572E+00  0.2199E+01
    -11.574  0.1220E-01  0.2200E+01
    -11.457  0.3311E-04  0.2200E+01
    -11.339  0.7329E-06  0.2200E+01
    -11.221  0.9597E-03  0.2200E+01
    -11.103  0.9418E-01  0.2211E+01
    -10.985  0.8200E+00  0.2308E+01
    -10.867  0.1108E+01  0.2438E+01
    -10.750  0.1074E+01  0.2565E+01
    -10.632  0.2890E+00  0.2599E+01
    -10.514  0.7832E-02  0.2600E+01
    -10.396  0.2998E-04  0.2600E+01
    -10.278  0.6782E-02  0.2601E+01
    -10.160  0.2686E+00  0.2632E+01
    -10.042  0.1001E+01  0.2750E+01
     -9.925  0.4046E+00  0.2798E+01
     -9.807  0.1715E-01  0.2800E+01
     -9.689  0.1238E+00  0.2815E+01
     -9.571  0.1306E+01  0.2969E+01
     -9.453  0.2047E+01  0.3210E+01
     -9.335  0.1292E+01  0.3362E+01
     -9.218  0.3116E+00  0.3399E+01
     -9.100  0.1326E-01  0.3401E+01
     -8.982  0.2886E+00  0.3435E+01
     -8.864  0.1785E+01  0.3645E+01
     -8.746  0.1227E+01  0.3789E+01
     -8.628  0.8970E-01  0.3800E+01
     -8.510  0.5758E-03  0.3800E+01
     -8.393  0.2802E-06  0.3800E+01
     -8.275  0.1501E-06  0.3800E+01
     -8.157  0.3198E-03  0.3800E+01
     -8.039  0.4965E-01  0.3806E+01
     -7.921  0.6492E+00  0.3882E+01
     -7.803  0.8718E+00  0.3985E+01
     -7.686  0.1301E+00  0.4000E+01
     -7.568  0.2437E+00  0.4029E+01
     -7.450  0.9911E+00  0.4146E+01
     -7.332  0.4392E+00  0.4198E+01
     -7.214  0.1917E-01  0.4200E+01
     -7.096  0.6756E-04  0.4200E+01
     -6.978  0.1696E-07  0.4200E+01
     -6.861  0.2860E-12  0.4200E+01
     -6.743  0.0000E+00  0.4200E+01
     -6.625  0.0000E+00  0.4200E+01
     -6.507  0.0000E+00  0.4200E+01
     -6.389  0.0000E+00  0.4200E+01
     -6.271  0.1969E-11  0.4200E+01
     -6.154  0.7581E-07  0.4200E+01
     -6.036  0.1974E-03  0.4200E+01
     -5.918  0.3714E-01  0.4204E+01
     -5.800  0.5806E+00  0.4273E+01
     -5.682  0.9204E+00  0.4381E+01
     -5.564  0.1564E+00  0.4400E+01
     -5.447  0.2403E-02  0.4400E+01
     -5.329  0.3497E-02  0.4400E+01
     -5.211  0.1911E+00  0.4423E+01
     -5.093  0.9575E+00  0.4536E+01
     -4.975  0.5169E+00  0.4597E+01
     -4.857  0.3148E-01  0.4600E+01
     -4.739  0.1925E+00  0.4623E+01
     -4.622  0.9586E+00  0.4736E+01
     -4.504  0.5148E+00  0.4797E+01
     -4.386  0.2768E-01  0.4800E+01
     -4.268  0.1220E-03  0.4800E+01
     -4.150  0.3859E-07  0.4800E+01
     -4.032  0.8230E-12  0.4800E+01
     -3.915  0.0000E+00  0.4800E+01
     -3.797  0.0000E+00  0.4800E+01
     -3.679  0.0000E+00  0.4800E+01
     -3.561  0.0000E+00  0.4800E+01
     -3.443  0.0000E+00  0.4800E+01
     -3.325  0.0000E+00  0.4800E+01
     -3.207  0.0000E+00  0.4800E+01
     -3.090  0.0000E+00  0.4800E+01
     -2.972  0.0000E+00  0.4800E+01
     -2.854  0.0000E+00  0.4800E+01
     -2.736  0.0000E+00  0.4800E+01
     -2.618  0.0000E+00  0.4800E+01
     -2.500  0.0000E+00  0.4800E+01
     -2.383  0.0000E+00  0.4800E+01
     -2.265  0.0000E+00  0.4800E+01
     -2.147  0.0000E+00  0.4800E+01
     -2.029  0.0000E+00  0.4800E+01
     -1.911  0.0000E+00  0.4800E+01
     -1.793  0.0000E+00  0.4800E+01
     -1.676  0.0000E+00  0.4800E+01
     -1.558  0.0000E+00  0.4800E+01
     -1.440  0.0000E+00  0.4800E+01
     -1.322  0.1441E-13  0.4800E+01
     -1.204  0.1623E-08  0.4800E+01
     -1.086  0.1217E-04  0.4800E+01
     -0.968  0.6387E-02  0.4801E+01
     -0.851  0.2607E+00  0.4831E+01
     -0.733  0.9986E+00  0.4949E+01
     -0.615  0.4182E+00  0.4998E+01
     -0.497  0.2227E+00  0.5025E+01
     -0.379  0.1321E+01  0.5180E+01
     -0.261  0.1522E+01  0.5360E+01
     -0.144  0.3325E+00  0.5399E+01
     -0.026  0.8895E-02  0.5400E+01
      0.092  0.2012E-04  0.5400E+01
      0.210  0.4623E-03  0.5400E+01
      0.328  0.6180E-01  0.5407E+01
      0.446  0.7220E+00  0.5492E+01
      0.564  0.1272E+01  0.5642E+01
      0.681  0.1135E+01  0.5776E+01
      0.799  0.8501E+00  0.5876E+01
      0.917  0.9176E+00  0.5984E+01
      1.035  0.4920E+00  0.6042E+01
      1.153  0.1012E+01  0.6162E+01
      1.271  0.3163E+00  0.6199E+01
      1.388  0.9726E-02  0.6200E+01
      1.506  0.4503E-01  0.6205E+01
      1.624  0.6684E+00  0.6284E+01
      1.742  0.1629E+01  0.6476E+01
      1.860  0.2053E+01  0.6718E+01
      1.978  0.2105E+01  0.6966E+01
      2.096  0.1689E+01  0.7165E+01
      2.213  0.2895E+00  0.7199E+01
      2.331  0.5730E-02  0.7200E+01
      2.449  0.9605E-05  0.7200E+01
      2.567  0.1158E-08  0.7200E+01
      2.685  0.9421E-14  0.7200E+01
      2.803  0.0000E+00  0.7200E+01
      2.920  0.0000E+00  0.7200E+01
      3.038  0.0000E+00  0.7200E+01
      3.156  0.0000E+00  0.7200E+01
      3.274  0.0000E+00  0.7200E+01
      3.392  0.0000E+00  0.7200E+01
      3.510  0.0000E+00  0.7200E+01
      3.627  0.0000E+00  0.7200E+01
      3.62747603    -31.72576490  301     -4.14287171      1.00000000
    -31.726  0.0000E+00  0.0000E+00  0.0000E+00  0.0000E+00  0.0000E+00  0.0000E+00  0.0000E+00  0.0000E+00  0.0000E+00
    -31.608  0.0000E+00  0.0000E+00  0.0000E+00  0.0000E+00  0.0000E+00  0.0000E+00  0.0000E+00  0.0000E+00  0.0000E+00
    -31.490  0.0000E+00  0.0000E+00  0.0000E+00  0.0000E+00  0.0000E+00  0.0000E+00  0.0000E+00  0.0000E+00  0.0000E+00
    -31.372  0.0000E+00  0.0000E+00  0.0000E+00  0.0000E+00  0.0000E+00  0.0000E+00  0.0000E+00  0.0000E+00  0.0000E+00
    -31.254  0.0000E+00  0.0000E+00  0.0000E+00  0.0000E+00  0.0000E+00  0.0000E+00  0.0000E+00  0.0000E+00  0.0000E+00
    -31.137  0.0000E+00  0.0000E+00  0.0000E+00  0.0000E+00  0.0000E+00  0.0000E+00  0.0000E+00  0.0000E+00  0.0000E+00
    -31.019  0.0000E+00  0.0000E+00  0.0000E+00  0.0000E+00  0.0000E+00  0.0000E+00  0.0000E+00  0.0000E+00  0.0000E+00
    -30.901  0.0000E+00  0.0000E+00  0.0000E+00  0.0000E+00  0.0000E+00  0.0000E+00  0.0000E+00  0.0000E+00  0.0000E+00
    -30.783  0.0000E+00  0.0000E+00  0.0000E+00  0.0000E+00  0.0000E+00  0.0000E+00  0.0000E+00  0.0000E+00  0.0000E+00
    -30.665  0.4724E-17  0.1596E-17  0.8250E-18  0.1089E-22  0.0000E+00  0.0000E+00  0.0000E+00  0.0000E+00  0.0000E+00
    -30.547  0.5842E-12  0.1973E-12  0.1020E-12  0.1347E-17  0.0000E+00  0.0000E+00  0.0000E+00  0.0000E+00  0.0000E+00
    -30.429  0.4790E-08  0.1618E-08  0.8364E-09  0.1104E-13  0.0000E+00  0.0000E+00  0.0000E+00  0.0000E+00  0.0000E+00
    -30.312  0.2741E-05  0.9260E-06  0.4787E-06  0.6319E-11  0.0000E+00  0.0000E+00  0.0000E+00  0.0000E+00  0.0000E+00
    -30.194  0.1214E-03  0.4101E-04  0.2120E-04  0.2799E-09  0.0000E+00  0.0000E+00  0.0000E+00  0.0000E+00  0.0000E+00
    -30.076  0.5014E-03  0.1694E-03  0.8756E-04  0.1156E-08  0.0000E+00  0.0000E+00  0.0000E+00  0.0000E+00  0.0000E+00
    -29.958  0.2241E-03  0.7570E-04  0.3914E-04  0.5167E-09  0.0000E+00  0.0000E+00  0.0000E+00  0.0000E+00  0.0000E+00
    -29.840  0.9872E-05  0.3335E-05  0.1724E-05  0.2276E-10  0.0000E+00  0.0000E+00  0.0000E+00  0.0000E+00  0.0000E+00
    -29.722  0.3514E-07  0.1187E-07  0.6136E-08  0.8099E-13  0.0000E+00  0.0000E+00  0.0000E+00  0.0000E+00  0.0000E+00
    -29.605  0.8913E-11  0.3011E-11  0.1556E-11  0.2055E-16  0.0000E+00  0.0000E+00  0.0000E+00  0.0000E+00  0.0000E+00
    -29.487  0.1519E-15  0.5132E-16  0.2653E-16  0.3502E-21  0.0000E+00  0.0000E+00  0.0000E+00  0.0000E+00  0.0000E+00
    -29.369  0.0000E+00  0.0000E+00  0.0000E+00  0.0000E+00  0.0000E+00  0.0000E+00  0.0000E+00  0.0000E+00  0.0000E+00
    -29.251  0.0000E+00  0.0000E+00  0.0000E+00  0.0000E+00  0.0000E+00  0.0000E+00  0.0000E+00  0.0000E+00  0.0000E+00
    -29.133  0.0000E+00  0.0000E+00  0.0000E+00  0.0000E+00  0.0000E+00  0.0000E+00  0.0000E+00  0.0000E+00  0.0000E+00
    -29.015  0.0000E+00  0.0000E+00  0.0000E+00  0.0000E+00  0.0000E+00  0.0000E+00  0.0000E+00  0.0000E+00  0.0000E+00
    -28.898  0.0000E+00  0.0000E+00  0.0000E+00  0.0000E+00  0.0000E+00  0.0000E+00  0.0000E+00  0.0000E+00  0.0000E+00
    -28.780  0.0000E+00  0.0000E+00  0.0000E+00  0.0000E+00  0.0000E+00  0.0000E+00  0.0000E+00  0.0000E+00  0.0000E+00
    -28.662  0.0000E+00  0.0000E+00  0.0000E+00  0.0000E+00  0.0000E+00  0.0000E+00  0.0000E+00  0.0000E+00  0.0000E+00
    -28.544  0.0000E+00  0.0000E+00  0.0000E+00  0.0000E+00  0.0000E+00  0.0000E+00  0.0000E+00  0.0000E+00  0.0000E+00
    -28.426  0.0000E+00  0.0000E+00  0.0000E+00  0.0000E+00  0.0000E+00  0.0000E+00  0.0000E+00  0.0000E+00  0.0000E+00
    -28.308  0.0000E+00  0.0000E+00  0.0000E+00  0.0000E+00  0.0000E+00  0.0000E+00  0.0000E+00  0.0000E+00  0.0000E+00
    -28.190  0.0000E+00  0.0000E+00  0.0000E+00  0.0000E+00  0.0000E+00  0.0000E+00  0.0000E+00  0.0000E+00  0.0000E+00
    -28.073  0.0000E+00  0.0000E+00  0.0000E+00  0.0000E+00  0.0000E+00  0.0000E+00  0.0000E+00  0.0000E+00  0.0000E+00
    -27.955  0.0000E+00  0.0000E+00  0.0000E+00  0.0000E+00  0.0000E+00  0.0000E+00  0.0000E+00  0.0000E+00  0.0000E+00
    -27.837  0.0000E+00  0.0000E+00  0.0000E+00  0.0000E+00  0.0000E+00  0.0000E+00  0.0000E+00  0.0000E+00  0.0000E+00
    -27.719  0.0000E+00  0.0000E+00  0.0000E+00  0.0000E+00  0.0000E+00  0.0000E+00  0.0000E+00  0.0000E+00  0.0000E+00
    -27.601  0.0000E+00  0.0000E+00  0.0000E+00  0.0000E+00  0.0000E+00  0.0000E+00  0.0000E+00  0.0000E+00  0.0000E+00
    -27.483  0.0000E+00  0.0000E+00  0.0000E+00  0.0000E+00  0.0000E+00  0.0000E+00  0.0000E+00  0.0000E+00  0.0000E+00
    -27.366  0.0000E+00  0.0000E+00  0.0000E+00  0.0000E+00  0.0000E+00  0.0000E+00  0.0000E+00  0.0000E+00  0.0000E+00
    -27.248  0.0000E+00  0.0000E+00  0.0000E+00  0.0000E+00  0.0000E+00  0.0000E+00  0.0000E+00  0.0000E+00  0.0000E+00
    -27.130  0.0000E+00  0.0000E+00  0.0000E+00  0.0000E+00  0.0000E+00  0.0000E+00  0.0000E+00  0.0000E+00  0.0000E+00
    -27.012  0.0000E+00  0.0000E+00  0.0000E+00  0.0000E+00  0.0000E+00  0.0000E+00  0.0000E+00  0.0000E+00  0.0000E+00
    -26.894  0.0000E+00  0.0000E+00  0.0000E+00  0.0000E+00  0.0000E+00  0.0000E+00  0.0000E+00  0.0000E+00  0.0000E+00
    -26.776  0.0000E+00  0.0000E+00  0.0000E+00  0.0000E+00  0.0000E+00  0.0000E+00  0.0000E+00  0.0000E+00  0.0000E+00
    -26.658  0.0000E+00  0.0000E+00  0.0000E+00  0.0000E+00  0.0000E+00  0.0000E+00  0.0000E+00  0.0000E+00  0.0000E+00
    -26.541  0.0000E+00  0.0000E+00  0.0000E+00  0.0000E+00  0.0000E+00  0.0000E+00  0.0000E+00  0.0000E+00  0.0000E+00
    -26.423  0.0000E+00  0.0000E+00  0.0000E+00  0.0000E+00  0.0000E+00  0.0000E+00  0.0000E+00  0.0000E+00  0.0000E+00
    -26.305  0.0000E+00  0.0000E+00  0.0000E+00  0.0000E+00  0.0000E+00  0.0000E+00  0.0000E+00  0.0000E+00  0.0000E+00
    -26.187  0.0000E+00  0.0000E+00  0.0000E+00  0.0000E+00  0.0000E+00  0.0000E+00  0.0000E+00  0.0000E+00  0.0000E+00
    -26.069  0.0000E+00  0.0000E+00  0.0000E+00  0.0000E+00  0.0000E+00  0.0000E+00  0.0000E+00  0.0000E+00  0.0000E+00
    -25.951  0.0000E+00  0.0000E+00  0.0000E+00  0.0000E+00  0.0000E+00  0.0000E+00  0.0000E+00  0.0000E+00  0.0000E+00
    -25.834  0.0000E+00  0.0000E+00  0.0000E+00  0.0000E+00  0.0000E+00  0.0000E+00  0.0000E+00  0.0000E+00  0.0000E+00
    -25.716  0.0000E+00  0.0000E+00  0.0000E+00  0.0000E+00  0.0000E+00  0.0000E+00  0.0000E+00  0.0000E+00  0.0000E+00
    -25.598  0.0000E+00  0.0000E+00  0.0000E+00  0.0000E+00  0.0000E+00  0.0000E+00  0.0000E+00  0.0000E+00  0.0000E+00
    -25.480  0.0000E+00  0.0000E+00  0.0000E+00  0.0000E+00  0.0000E+00  0.0000E+00  0.0000E+00  0.0000E+00  0.0000E+00
    -25.362  0.0000E+00  0.0000E+00  0.0000E+00  0.0000E+00  0.0000E+00  0.0000E+00  0.0000E+00  0.0000E+00  0.0000E+00
    -25.244  0.0000E+00  0.0000E+00  0.0000E+00  0.0000E+00  0.0000E+00  0.0000E+00  0.0000E+00  0.0000E+00  0.0000E+00
    -25.126  0.0000E+00  0.0000E+00  0.0000E+00  0.0000E+00  0.0000E+00  0.0000E+00  0.0000E+00  0.0000E+00  0.0000E+00
    -25.009  0.0000E+00  0.0000E+00  0.0000E+00  0.0000E+00  0.0000E+00  0.0000E+00  0.0000E+00  0.0000E+00  0.0000E+00
    -24.891  0.0000E+00  0.0000E+00  0.0000E+00  0.0000E+00  0.0000E+00  0.0000E+00  0.0000E+00  0.0000E+00  0.0000E+00
    -24.773  0.0000E+00  0.0000E+00  0.0000E+00  0.0000E+00  0.0000E+00  0.0000E+00  0.0000E+00  0.0000E+00  0.0000E+00
    -24.655  0.0000E+00  0.0000E+00  0.0000E+00  0.0000E+00  0.0000E+00  0.0000E+00  0.0000E+00  0.0000E+00  0.0000E+00
    -24.537  0.0000E+00  0.0000E+00  0.0000E+00  0.0000E+00  0.0000E+00  0.0000E+00  0.0000E+00  0.0000E+00  0.0000E+00
    -24.419  0.0000E+00  0.0000E+00  0.0000E+00  0.0000E+00  0.0000E+00  0.0000E+00  0.0000E+00  0.0000E+00  0.0000E+00
    -24.302  0.0000E+00  0.0000E+00  0.0000E+00  0.0000E+00  0.0000E+00  0.0000E+00  0.0000E+00  0.0000E+00  0.0000E+00
    -24.184  0.0000E+00  0.0000E+00  0.0000E+00  0.0000E+00  0.0000E+00  0.0000E+00  0.0000E+00  0.0000E+00  0.0000E+00
    -24.066  0.0000E+00  0.0000E+00  0.0000E+00  0.0000E+00  0.0000E+00  0.0000E+00  0.0000E+00  0.0000E+00  0.0000E+00
    -23.948  0.0000E+00  0.0000E+00  0.0000E+00  0.0000E+00  0.0000E+00  0.0000E+00  0.0000E+00  0.0000E+00  0.0000E+00
    -23.830  0.0000E+00  0.0000E+00  0.0000E+00  0.0000E+00  0.0000E+00  0.0000E+00  0.0000E+00  0.0000E+00  0.0000E+00
    -23.712  0.0000E+00  0.0000E+00  0.0000E+00  0.0000E+00  0.0000E+00  0.0000E+00  0.0000E+00  0.0000E+00  0.0000E+00
    -23.595  0.0000E+00  0.0000E+00  0.0000E+00  0.0000E+00  0.0000E+00  0.0000E+00  0.0000E+00  0.0000E+00  0.0000E+00
    -23.477  0.6904E-14  0.1680E-14  0.1545E-16  0.1924E-20  0.0000E+00  0.0000E+00  0.0000E+00  0.0000E+00  0.0000E+00
    -23.359  0.3128E-09  0.7609E-10  0.6998E-12  0.8715E-16  0.0000E+00  0.0000E+00  0.0000E+00  0.0000E+00  0.0000E+00
    -23.241  0.9557E-06  0.2325E-06  0.2138E-08  0.2663E-12  0.0000E+00  0.0000E+00  0.0000E+00  0.0000E+00  0.0000E+00
    -23.123  0.2099E-03  0.5106E-04  0.4696E-06  0.5849E-10  0.0000E+00  0.0000E+00  0.0000E+00  0.0000E+00  0.0000E+00
    -23.005  0.3788E-02  0.9214E-03  0.8474E-05  0.1055E-08  0.0000E+00  0.0000E+00  0.0000E+00  0.0000E+00  0.0000E+00
    -22.887  0.6857E-02  0.1668E-02  0.1534E-04  0.1911E-08  0.0000E+00  0.0000E+00  0.0000E+00  0.0000E+00  0.0000E+00
    -22.770  0.1337E-02  0.3252E-03  0.2991E-05  0.3725E-09  0.0000E+00  0.0000E+00  0.0000E+00  0.0000E+00  0.0000E+00
    -22.652  0.2382E-04  0.5794E-05  0.5329E-07  0.6636E-11  0.0000E+00  0.0000E+00  0.0000E+00  0.0000E+00  0.0000E+00
    -22.534  0.5236E-07  0.1179E-07  0.1314E-09  0.1445E-13  0.0000E+00  0.0000E+00  0.0000E+00  0.0000E+00  0.0000E+00
    -22.416  0.1877E-04  0.3676E-05  0.5536E-07  0.5094E-11  0.0000E+00  0.0000E+00  0.0000E+00  0.0000E+00  0.0000E+00
    -22.298  0.1331E-02  0.2606E-03  0.3926E-05  0.3613E-09  0.0000E+00  0.0000E+00  0.0000E+00  0.0000E+00  0.0000E+00
    -22.180  0.8457E-02  0.1656E-02  0.2495E-04  0.2296E-08  0.0000E+00  0.0000E+00  0.0000E+00  0.0000E+00  0.0000E+00
    -22.063  0.5745E-02  0.1125E-02  0.1695E-04  0.1559E-08  0.0000E+00  0.0000E+00  0.0000E+00  0.0000E+00  0.0000E+00
    -21.945  0.3980E-03  0.7795E-04  0.1174E-05  0.1080E-09  0.0000E+00  0.0000E+00  0.0000E+00  0.0000E+00  0.0000E+00
    -21.827  0.2304E-05  0.4513E-06  0.6798E-08  0.6255E-12  0.0000E+00  0.0000E+00  0.0000E+00  0.0000E+00  0.0000E+00
    -21.709  0.9675E-09  0.1895E-09  0.2854E-11  0.2627E-15  0.0000E+00  0.0000E+00  0.0000E+00  0.0000E+00  0.0000E+00
    -21.591  0.2751E-13  0.5389E-14  0.8117E-16  0.7469E-20  0.0000E+00  0.0000E+00  0.0000E+00  0.0000E+00  0.0000E+00
    -21.473  0.0000E+00  0.0000E+00  0.0000E+00  0.0000E+00  0.0000E+00  0.0000E+00  0.0000E+00  0.0000E+00  0.0000E+00
    -21.355  0.0000E+00  0.0000E+00  0.0000E+00  0.0000E+00  0.0000E+00  0.0000E+00  0.0000E+00  0.0000E+00  0.0000E+00
    -21.238  0.0000E+00  0.0000E+00  0.0000E+00  0.0000E+00  0.0000E+00  0.0000E+00  0.0000E+00  0.0000E+00  0.0000E+00
    -21.120  0.0000E+00  0.0000E+00  0.0000E+00  0.0000E+00  0.0000E+00  0.0000E+00  0.0000E+00  0.0000E+00  0.0000E+00
    -21.002  0.0000E+00  0.0000E+00  0.0000E+00  0.0000E+00  0.0000E+00  0.0000E+00  0.0000E+00  0.0000E+00  0.0000E+00
    -20.884  0.0000E+00  0.0000E+00  0.0000E+00  0.0000E+00  0.0000E+00  0.0000E+00  0.0000E+00  0.0000E+00  0.0000E+00
    -20.766  0.0000E+00  0.0000E+00  0.0000E+00  0.0000E+00  0.0000E+00  0.0000E+00  0.0000E+00  0.0000E+00  0.0000E+00
    -20.648  0.0000E+00  0.0000E+00  0.0000E+00  0.0000E+00  0.0000E+00  0.0000E+00  0.0000E+00  0.0000E+00  0.0000E+00
    -20.531  0.0000E+00  0.0000E+00  0.0000E+00  0.0000E+00  0.0000E+00  0.0000E+00  0.0000E+00  0.0000E+00  0.0000E+00
    -20.413  0.0000E+00  0.0000E+00  0.0000E+00  0.0000E+00  0.0000E+00  0.0000E+00  0.0000E+00  0.0000E+00  0.0000E+00
    -20.295  0.0000E+00  0.0000E+00  0.0000E+00  0.0000E+00  0.0000E+00  0.0000E+00  0.0000E+00  0.0000E+00  0.0000E+00
    -20.177  0.0000E+00  0.0000E+00  0.0000E+00  0.0000E+00  0.0000E+00  0.0000E+00  0.0000E+00  0.0000E+00  0.0000E+00
    -20.059  0.0000E+00  0.0000E+00  0.0000E+00  0.0000E+00  0.0000E+00  0.0000E+00  0.0000E+00  0.0000E+00  0.0000E+00
    -19.941  0.1291E-10  0.1004E-11  0.1693E-14  0.6305E-19  0.0000E+00  0.0000E+00  0.0000E+00  0.0000E+00  0.0000E+00
    -19.824  0.3140E-06  0.2442E-07  0.4117E-10  0.1533E-14  0.0000E+00  0.0000E+00  0.0000E+00  0.0000E+00  0.0000E+00
    -19.706  0.5204E-03  0.4047E-04  0.6824E-07  0.2541E-11  0.0000E+00  0.0000E+00  0.0000E+00  0.0000E+00  0.0000E+00
    -19.588  0.6343E-01  0.4933E-02  0.8318E-05  0.3097E-09  0.0000E+00  0.0000E+00  0.0000E+00  0.0000E+00  0.0000E+00
    -19.470  0.6634E+00  0.5159E-01  0.8700E-04  0.3239E-08  0.0000E+00  0.0000E+00  0.0000E+00  0.0000E+00  0.0000E+00
    -19.352  0.7229E+00  0.5622E-01  0.9480E-04  0.3530E-08  0.0000E+00  0.0000E+00  0.0000E+00  0.0000E+00  0.0000E+00
    -19.234  0.8295E-01  0.6451E-02  0.1088E-04  0.4050E-09  0.0000E+00  0.0000E+00  0.0000E+00  0.0000E+00  0.0000E+00
    -19.116  0.8293E-03  0.6450E-04  0.1088E-06  0.4049E-11  0.0000E+00  0.0000E+00  0.0000E+00  0.0000E+00  0.0000E+00
    -18.999  0.6152E-06  0.4785E-07  0.8068E-10  0.3004E-14  0.0000E+00  0.0000E+00  0.0000E+00  0.0000E+00  0.0000E+00
    -18.881  0.3124E-10  0.2429E-11  0.4096E-14  0.1525E-18  0.0000E+00  0.0000E+00  0.0000E+00  0.0000E+00  0.0000E+00
    -18.763  0.0000E+00  0.0000E+00  0.0000E+00  0.0000E+00  0.0000E+00  0.0000E+00  0.0000E+00  0.0000E+00  0.0000E+00
    -18.645  0.2209E-14  0.4483E-16  0.8724E-17  0.1651E-21  0.0000E+00  0.0000E+00  0.0000E+00  0.0000E+00  0.0000E+00
    -18.527  0.3160E-09  0.6412E-11  0.1248E-11  0.2361E-16  0.0000E+00  0.0000E+00  0.0000E+00  0.0000E+00  0.0000E+00
    -18.409  0.3008E-05  0.6103E-07  0.1188E-07  0.2247E-12  0.0000E+00  0.0000E+00  0.0000E+00  0.0000E+00  0.0000E+00
    -18.292  0.1991E-02  0.4041E-04  0.7862E-05  0.1488E-09  0.0000E+00  0.0000E+00  0.0000E+00  0.0000E+00  0.0000E+00
    -18.174  0.1012E+00  0.2054E-02  0.3996E-03  0.7562E-08  0.0000E+00  0.0000E+00  0.0000E+00  0.0000E+00  0.0000E+00
    -18.056  0.4741E+00  0.9621E-02  0.1872E-02  0.3542E-07  0.0000E+00  0.0000E+00  0.0000E+00  0.0000E+00  0.0000E+00
    -17.938  0.2397E+00  0.4865E-02  0.9466E-03  0.1791E-07  0.0000E+00  0.0000E+00  0.0000E+00  0.0000E+00  0.0000E+00
    -17.820  0.1207E-01  0.2450E-03  0.4767E-04  0.9021E-09  0.0000E+00  0.0000E+00  0.0000E+00  0.0000E+00  0.0000E+00
    -17.702  0.4960E-04  0.1007E-05  0.1959E-06  0.3706E-11  0.0000E+00  0.0000E+00  0.0000E+00  0.0000E+00  0.0000E+00
    -17.584  0.1460E-07  0.2962E-09  0.5763E-10  0.1091E-14  0.0000E+00  0.0000E+00  0.0000E+00  0.0000E+00  0.0000E+00
    -17.467  0.2892E-12  0.5870E-14  0.1142E-14  0.2161E-19  0.0000E+00  0.0000E+00  0.0000E+00  0.0000E+00  0.0000E+00
    -17.349  0.0000E+00  0.0000E+00  0.0000E+00  0.0000E+00  0.0000E+00  0.0000E+00  0.0000E+00  0.0000E+00  0.0000E+00
    -17.231  0.1245E-13  0.9751E-17  0.2908E-17  0.1086E-22  0.0000E+00  0.0000E+00  0.0000E+00  0.0000E+00  0.0000E+00
    -17.113  0.1674E-08  0.1311E-11  0.3911E-12  0.1461E-17  0.0000E+00  0.0000E+00  0.0000E+00  0.0000E+00  0.0000E+00
    -16.995  0.1498E-04  0.1173E-07  0.3498E-08  0.1307E-13  0.0000E+00  0.0000E+00  0.0000E+00  0.0000E+00  0.0000E+00
    -16.877  0.9333E-02  0.7310E-05  0.2180E-05  0.8141E-11  0.0000E+00  0.0000E+00  0.0000E+00  0.0000E+00  0.0000E+00
    -16.760  0.4480E+00  0.3509E-03  0.1046E-03  0.3907E-09  0.0000E+00  0.0000E+00  0.0000E+00  0.0000E+00  0.0000E+00
    -16.642  0.1991E+01  0.1559E-02  0.4650E-03  0.1737E-08  0.0000E+00  0.0000E+00  0.0000E+00  0.0000E+00  0.0000E+00
    -16.524  0.9564E+00  0.7491E-03  0.2234E-03  0.8342E-09  0.0000E+00  0.0000E+00  0.0000E+00  0.0000E+00  0.0000E+00
    -16.406  0.4556E-01  0.3568E-04  0.1064E-04  0.3974E-10  0.0000E+00  0.0000E+00  0.0000E+00  0.0000E+00  0.0000E+00
    -16.288  0.1763E-03  0.1381E-06  0.4118E-07  0.1538E-12  0.0000E+00  0.0000E+00  0.0000E+00  0.0000E+00  0.0000E+00
    -16.170  0.4878E-07  0.3820E-10  0.1139E-10  0.4255E-16  0.0000E+00  0.0000E+00  0.0000E+00  0.0000E+00  0.0000E+00
    -16.052  0.9079E-12  0.7111E-15  0.2120E-15  0.7919E-21  0.0000E+00  0.0000E+00  0.0000E+00  0.0000E+00  0.0000E+00
    -15.935  0.0000E+00  0.0000E+00  0.0000E+00  0.0000E+00  0.0000E+00  0.0000E+00  0.0000E+00  0.0000E+00  0.0000E+00
    -15.817  0.0000E+00  0.0000E+00  0.0000E+00  0.0000E+00  0.0000E+00  0.0000E+00  0.0000E+00  0.0000E+00  0.0000E+00
    -15.699  0.0000E+00  0.0000E+00  0.0000E+00  0.0000E+00  0.0000E+00  0.0000E+00  0.0000E+00  0.0000E+00  0.0000E+00
    -15.581  0.0000E+00  0.0000E+00  0.0000E+00  0.0000E+00  0.0000E+00  0.0000E+00  0.0000E+00  0.0000E+00  0.0000E+00
    -15.463  0.9573E-17  0.5412E-18  0.3317E-16  0.1224E-22  0.0000E+00  0.0000E+00  0.0000E+00  0.0000E+00  0.0000E+00
    -15.345  0.1947E-11  0.1101E-12  0.6746E-11  0.2491E-17  0.0000E+00  0.0000E+00  0.0000E+00  0.0000E+00  0.0000E+00
    -15.228  0.2588E-07  0.1463E-08  0.8967E-07  0.3310E-13  0.0000E+00  0.0000E+00  0.0000E+00  0.0000E+00  0.0000E+00
    -15.110  0.2374E-04  0.1342E-05  0.8224E-04  0.3036E-10  0.0000E+00  0.0000E+00  0.0000E+00  0.0000E+00  0.0000E+00
    -14.992  0.1645E-02  0.9309E-04  0.5696E-02  0.2103E-08  0.0000E+00  0.0000E+00  0.0000E+00  0.0000E+00  0.0000E+00
    -14.874  0.1100E-01  0.7353E-03  0.3543E-01  0.1334E-07  0.0000E+00  0.0000E+00  0.0000E+00  0.0000E+00  0.0000E+00
    -14.756  0.7430E-01  0.1413E-01  0.2388E-01  0.3113E-07  0.0000E+00  0.0000E+00  0.0000E+00  0.0000E+00  0.0000E+00
    -14.638  0.5205E+00  0.1059E+00  0.3993E-02  0.1734E-06  0.0000E+00  0.0000E+00  0.0000E+00  0.0000E+00  0.0000E+00
    -14.521  0.4246E+00  0.8648E-01  0.1965E-02  0.1411E-06  0.0000E+00  0.0000E+00  0.0000E+00  0.0000E+00  0.0000E+00
    -14.403  0.3583E-01  0.7298E-02  0.1651E-03  0.1191E-07  0.0000E+00  0.0000E+00  0.0000E+00  0.0000E+00  0.0000E+00
    -14.285  0.2568E-03  0.5230E-04  0.1183E-05  0.8535E-10  0.0000E+00  0.0000E+00  0.0000E+00  0.0000E+00  0.0000E+00
    -14.167  0.1346E-06  0.2741E-07  0.6201E-09  0.4473E-13  0.0000E+00  0.0000E+00  0.0000E+00  0.0000E+00  0.0000E+00
    -14.049  0.4796E-11  0.9768E-12  0.2210E-13  0.1594E-17  0.0000E+00  0.0000E+00  0.0000E+00  0.0000E+00  0.0000E+00
    -13.931  0.0000E+00  0.0000E+00  0.0000E+00  0.0000E+00  0.0000E+00  0.0000E+00  0.0000E+00  0.0000E+00  0.0000E+00
    -13.813  0.0000E+00  0.0000E+00  0.0000E+00  0.0000E+00  0.0000E+00  0.0000E+00  0.0000E+00  0.0000E+00  0.0000E+00
    -13.696  0.0000E+00  0.0000E+00  0.0000E+00  0.0000E+00  0.0000E+00  0.0000E+00  0.0000E+00  0.0000E+00  0.0000E+00
    -13.578  0.7096E-18  0.4726E-18  0.6996E-18  0.3010E-21  0.0000E+00  0.0000E+00  0.0000E+00  0.0000E+00  0.0000E+00
    -13.460  0.1390E-12  0.9259E-13  0.1371E-12  0.5898E-16  0.0000E+00  0.0000E+00  0.0000E+00  0.0000E+00  0.0000E+00
    -13.342  0.3181E-08  0.2119E-08  0.3137E-08  0.1350E-11  0.0000E+00  0.0000E+00  0.0000E+00  0.0000E+00  0.0000E+00