   16   16   10    1
  0.6439303E+02  0.7759100E-09  0.1173340E-08  0.1131680E-08  0.2000000E-15
  1.000000000000000E-004
  CAR 
 QM9                                     
     48      1     36
 
  0.0000000E+00  0.0000000E+00  0.0000000E+00  0.1000000E+01
      1        -30.118799   1.000000
      2        -22.973666   1.000000
      3        -22.201024   1.000000
      4        -19.465389   1.000000
      5        -18.092165   1.000000
      6        -16.680755   1.000000
      7        -14.895791   1.000000
      8        -14.649190   1.000000
      9        -12.986605   1.000000
     10        -12.549626   1.000000
     11        -11.865264   1.000000
     12        -10.990684   1.000000
     13        -10.815703   1.000000
     14        -10.090626   1.000000
     15         -9.579171   1.000000
     16         -9.532025   1.000000
     17         -9.398540   1.000000
     18         -8.894826   1.000000
     19         -8.873881   1.000000
     20         -7.905517   1.000000
     21         -7.493174   1.000000
     22         -5.775485   1.000000
     23         -5.125840   1.000000
     24         -4.654737   1.000000
     25         -0.779509   0.000000
     26         -0.412542   0.000000
     27         -0.324801   0.000000
     28          0.454483   0.000000
     29          0.606199   0.000000
     30          0.819981   0.000000
     31          1.091179   0.000000
     32          1.643065   0.000000
     33          1.762552   0.000000
     34          1.843793   0.000000
     35          1.961792   0.000000
     36          2.020511   0.000000
