<?xml version="1.0" encoding="ISO-8859-1"?>
<modeling>
 <generator>
  <i name="program" type="string">vasp </i>
  <i name="version" type="string">6.4.1  </i>
  <i name="subversion" type="string">05Apr23 (build Jun 16 2023 21:25:53) gamma-only                       parallel </i>
  <i name="platform" type="string">LinuxIFC </i>
  <i name="date" type="string">2024 07 14 </i>
  <i name="time" type="string">18:50:55 </i>
 </generator>
 <incar>
  <i type="string" name="SYSTEM">QM9</i>
  <i type="string" name="ALGO">V</i>
  <i type="int" name="NELM">   150</i>
  <i type="int" name="NELMDL">   -20</i>
  <i type="int" name="NELMIN">     6</i>
  <i type="int" name="IBRION">     2</i>
  <i name="EDIFF">      0.00001000</i>
  <i name="EDIFFG">     -0.02000000</i>
  <i type="int" name="NSW">    10</i>
  <i type="int" name="ISIF">     2</i>
  <i type="int" name="ISYM">     0</i>
  <i name="ENCUT">    500.00000000</i>
  <i name="POTIM">      0.20000000</i>
  <i type="string" name="LREAL">Auto</i>
  <i type="int" name="ISMEAR">     0</i>
  <i name="SIGMA">      0.10000000</i>
  <i type="logical" name="LWAVE"> F  </i>
  <i type="logical" name="LCHARG"> F  </i>
  <i type="int" name="LORBIT">    11</i>
 </incar>
 <primitive_cell>
  <structure name="primitive_cell" >
   <crystal>
    <varray name="basis" >
     <v>       7.75910000       0.00000000       0.00000000 </v>
     <v>       0.00000000      11.73340000       0.00000000 </v>
     <v>       0.00000000       0.00000000      11.31680000 </v>
    </varray>
    <i name="volume">   1030.28853300 </i>
    <varray name="rec_basis" >
     <v>       0.12888093       0.00000000       0.00000000 </v>
     <v>       0.00000000       0.08522679       0.00000000 </v>
     <v>       0.00000000       0.00000000       0.08836420 </v>
    </varray>
   </crystal>
   <varray name="positions" >
    <v>       0.49989045       0.71022040       0.54373144 </v>
    <v>       0.49998067       0.58205635       0.54586102 </v>
    <v>       0.50005800       0.51915898       0.44226283 </v>
    <v>       0.50017399       0.40030170       0.44177683 </v>
    <v>       0.50156590       0.34833893       0.55326594 </v>
    <v>       0.50047042       0.51886069       0.65062562 </v>
    <v>       0.50117926       0.57310754       0.33729500 </v>
    <v>       0.61335722       0.74368043       0.49779089 </v>
    <v>       0.38664278       0.74355259       0.49747278 </v>
    <v>       0.49961980       0.74431963       0.63356249 </v>
    <v>       0.53395368       0.38329896       0.26509261 </v>
    <v>       0.54181542       0.26024852       0.34012265 </v>
    <v>       0.50240363       0.25568037       0.55875336 </v>
    <v>       0.50019977       0.56337464       0.73490739 </v>
    <v>       0.49199005       0.33963727       0.33636717 </v>
    <v>       0.50166901       0.40532156       0.65492896 </v>
   </varray>
  </structure>
  <varray name="primitive_index" >
   <v type="int" >        1 </v>
   <v type="int" >        2 </v>
   <v type="int" >        3 </v>
   <v type="int" >        4 </v>
   <v type="int" >        5 </v>
   <v type="int" >        6 </v>
   <v type="int" >        7 </v>
   <v type="int" >        8 </v>
   <v type="int" >        9 </v>
   <v type="int" >       10 </v>
   <v type="int" >       11 </v>
   <v type="int" >       12 </v>
   <v type="int" >       13 </v>
   <v type="int" >       14 </v>
   <v type="int" >       15 </v>
   <v type="int" >       16 </v>
  </varray>
 </primitive_cell>
 <kpoints>
  <generation param="Gamma">
   <v type="int" name="divisions">       1        1        1 </v>
   <v name="usershift">      0.00000000       0.00000000       0.00000000 </v>
   <v name="genvec1">      1.00000000       0.00000000       0.00000000 </v>
   <v name="genvec2">      0.00000000       1.00000000       0.00000000 </v>
   <v name="genvec3">      0.00000000       0.00000000       1.00000000 </v>
   <v name="shift">      0.00000000       0.00000000       0.00000000 </v>
  </generation>
  <varray name="kpointlist" >
   <v>       0.00000000       0.00000000       0.00000000 </v>
  </varray>
  <varray name="weights" >
   <v>       1.00000000 </v>
  </varray>
 </kpoints>
 <parameters>
  <separator name="general" >
   <i type="string" name="SYSTEM">QM9</i>
   <i type="logical" name="LCOMPAT"> F  </i>
  </separator>
  <separator name="electronic" >
   <i type="string" name="PREC">normal</i>
   <i name="ENMAX">    500.00000000</i>
   <i name="ENAUG">    644.87300000</i>
   <i name="EDIFF">      0.00001000</i>
   <i type="int" name="IALGO">    48</i>
   <i type="int" name="IWAVPR">    11</i>
   <i type="int" name="NBANDS">    36</i>
   <i type="int" name="NBANDSLOW">    -1</i>
   <i type="int" name="NBANDSHIGH">    -1</i>
   <i name="NELECT">     48.00000000</i>
   <i type="int" name="TURBO">     0</i>
   <i type="int" name="IRESTART">     0</i>
   <i type="int" name="NREBOOT">     0</i>
   <i type="int" name="NMIN">     0</i>
   <i name="EREF">      0.00000000</i>
   <separator name="electronic smearing" >
    <i type="int" name="ISMEAR">     0</i>
    <i name="SIGMA">      0.10000000</i>
    <i name="KSPACING">      0.50000000</i>
    <i type="logical" name="KGAMMA"> T  </i>
    <i type="logical" name="KBLOWUP"> T  </i>
   </separator>
   <separator name="electronic projectors" >
    <i type="logical" name="LREAL"> T  </i>
    <v name="ROPT">     -0.00050000     -0.00050000     -0.00050000     -0.00050000</v>
    <i type="int" name="LMAXPAW">  -100</i>
    <i type="int" name="LMAXMIX">     2</i>
    <i type="logical" name="NLSPLINE"> F  </i>
   </separator>
   <separator name="electronic startup" >
    <i type="int" name="ISTART">     0</i>
    <i type="int" name="ICHARG">     2</i>
    <i type="int" name="INIWAV">     1</i>
   </separator>
   <separator name="electronic spin" >
    <i type="int" name="ISPIN">     1</i>
    <i type="logical" name="LNONCOLLINEAR"> F  </i>
    <v name="MAGMOM">      1.00000000      1.00000000      1.00000000      1.00000000      1.00000000      1.00000000      1.00000000      1.00000000      1.00000000      1.00000000      1.00000000      1.00000000      1.00000000      1.00000000      1.00000000      1.00000000</v>
    <i name="NUPDOWN">     -1.00000000</i>
    <i type="logical" name="LSORBIT"> F  </i>
    <v name="SAXIS">      0.00000000      0.00000000      1.00000000</v>
    <i type="logical" name="LSPIRAL"> F  </i>
    <v name="QSPIRAL">      0.00000000      0.00000000      0.00000000</v>
    <i type="logical" name="LZEROZ"> F  </i>
   </separator>
   <separator name="electronic exchange-correlation" >
    <i type="logical" name="LASPH"> F  </i>
    <i type="logical" name="LMETAGGA"> F  </i>
   </separator>
   <separator name="electronic convergence" >
    <i type="int" name="NELM">   150</i>
    <i type="int" name="NELMDL">   -20</i>
    <i type="int" name="NELMIN">     6</i>
    <i name="ENINI">    500.00000000</i>
    <separator name="electronic convergence detail" >
     <i type="logical" name="LDIAG"> T  </i>
     <i type="logical" name="LSUBROT"> F  </i>
     <i name="WEIMIN">      0.00100000</i>
     <i name="EBREAK">      0.00000007</i>
     <i name="DEPER">      0.30000000</i>
     <i type="int" name="NRMM">     4</i>
     <i name="TIME">      0.40000000</i>
    </separator>
   </separator>
   <separator name="electronic mixer" >
    <i name="AMIX">      0.40000000</i>
    <i name="BMIX">      1.00000000</i>
    <i name="AMIN">      0.10000000</i>
    <i name="AMIX_MAG">      1.60000000</i>
    <i name="BMIX_MAG">      1.00000000</i>
    <separator name="electronic mixer details" >
     <i type="int" name="IMIX">     4</i>
     <i type="logical" name="MIXFIRST"> F  </i>
     <i type="int" name="MAXMIX">   -45</i>
     <i name="WC">    100.00000000</i>
     <i type="int" name="INIMIX">     1</i>
     <i type="int" name="MIXPRE">     1</i>
     <i type="int" name="MREMOVE">     5</i>
    </separator>
   </separator>
   <separator name="electronic dipolcorrection" >
    <i type="logical" name="LDIPOL"> F  </i>
    <i type="logical" name="LMONO"> F  </i>
    <i type="int" name="IDIPOL">     0</i>
    <i name="EPSILON">      1.00000000</i>
    <v name="DIPOL">   -100.00000000   -100.00000000   -100.00000000</v>
    <i name="EFIELD">      0.00000000</i>
   </separator>
  </separator>
  <separator name="grids" >
   <i type="int" name="NGX">    42</i>
   <i type="int" name="NGY">    64</i>
   <i type="int" name="NGZ">    64</i>
   <i type="int" name="NGXF">    84</i>
   <i type="int" name="NGYF">   128</i>
   <i type="int" name="NGZF">   128</i>
   <i type="logical" name="ADDGRID"> F  </i>
  </separator>
  <separator name="ionic" >
   <i type="int" name="NSW">    10</i>
   <i type="int" name="IBRION">     2</i>
   <i type="int" name="MDALGO">     0</i>
   <i type="int" name="ISIF">     2</i>
   <i name="PSTRESS">      0.00000000</i>
   <i name="EDIFFG">     -0.02000000</i>
   <i type="int" name="NFREE">     1</i>
   <i name="POTIM">      0.20000000</i>
   <i name="SMASS">     -3.00000000</i>
   <i name="SCALEE">      1.00000000</i>
  </separator>
  <separator name="ionic md" >
   <i name="TEBEG">      0.00010000</i>
   <i name="TEEND">      0.00010000</i>
   <i type="int" name="NBLOCK">     1</i>
   <i type="int" name="KBLOCK">    10</i>
   <i type="int" name="NPACO">   256</i>
   <i name="APACO">     10.00000000</i>
  </separator>
  <separator name="symmetry" >
   <i type="int" name="ISYM">     0</i>
   <i name="SYMPREC">      0.00001000</i>
  </separator>
  <separator name="dos" >
   <i type="int" name="LORBIT">    11</i>
   <v name="RWIGS">     -1.00000000     -1.00000000     -1.00000000     -1.00000000</v>
   <i type="int" name="NEDOS">   301</i>
   <i name="EMIN">     10.00000000</i>
   <i name="EMAX">    -10.00000000</i>
   <i name="EFERMI">      0.00000000</i>
  </separator>
  <separator name="writing" >
   <i type="int" name="NWRITE">     2</i>
   <i type="logical" name="LWAVE"> F  </i>
   <i type="logical" name="LDOWNSAMPLE"> F  </i>
   <i type="logical" name="LCHARG"> F  </i>
   <i type="logical" name="LPARD"> F  </i>
   <i type="logical" name="LVTOT"> F  </i>
   <i type="logical" name="LVHAR"> F  </i>
   <i type="logical" name="LELF"> F  </i>
   <i type="logical" name="LOPTICS"> F  </i>
   <v name="STM">      0.00000000      0.00000000      0.00000000      0.00000000      0.00000000      0.00000000      0.00000000</v>
  </separator>
  <separator name="performance" >
   <i type="int" name="NPAR">     4</i>
   <i type="int" name="NSIM">     4</i>
   <i type="int" name="NBLK">    -1</i>
   <i type="logical" name="LPLANE"> T  </i>
   <i type="logical" name="LSCALAPACK"> T  </i>
   <i type="logical" name="LSCAAWARE"> F  </i>
   <i type="logical" name="LSCALU"> F  </i>
   <i type="logical" name="LASYNC"> F  </i>
   <i type="logical" name="LORBITALREAL"> F  </i>
  </separator>
  <separator name="miscellaneous" >
   <i type="int" name="IDIOT">     3</i>
   <i type="int" name="PHON_NSTRUCT">    -1</i>
   <i type="logical" name="LMUSIC"> F  </i>
   <v name="POMASS">     12.01100000     18.99800000      1.00000000     14.00100000</v>
   <v name="DARWINR">      0.00000000      0.00000000      0.00000000      0.00000000</v>
   <v name="DARWINV">      1.00000000      1.00000000      1.00000000      1.00000000</v>
   <i type="logical" name="LCORR"> T  </i>
  </separator>
  <i type="logical" name="GGA_COMPAT"> T  </i>
  <i type="logical" name="LBERRY"> F  </i>
  <i type="int" name="ICORELEVEL">     0</i>
  <i type="logical" name="LDAU"> F  </i>
  <i type="int" name="I_CONSTRAINED_M">     0</i>
  <separator name="electronic exchange-correlation" >
   <i type="string" name="GGA">--</i>
   <i type="int" name="VOSKOWN">     0</i>
   <i type="logical" name="LHFCALC"> F  </i>
   <i type="string" name="PRECFOCK"></i>
   <i type="logical" name="LSYMGRAD"> F  </i>
   <i type="logical" name="LHFONE"> F  </i>
   <i type="logical" name="LRHFCALC"> F  </i>
   <i type="logical" name="LTHOMAS"> F  </i>
   <i type="logical" name="LMODELHF"> F  </i>
   <i type="logical" name="LFOCKACE"> F  </i>
   <i name="ENCUT4O">     -1.00000000</i>
   <i type="int" name="EXXOEP">     0</i>
   <i type="int" name="FOURORBIT">     0</i>
   <i name="AEXX">      0.00000000</i>
   <i name="HFALPHA">      0.00000000</i>
   <i name="MCALPHA">      0.00000000</i>
   <i name="ALDAX">      1.00000000</i>
   <i name="AGGAX">      1.00000000</i>
   <i name="ALDAC">      1.00000000</i>
   <i name="AGGAC">      1.00000000</i>
   <i type="int" name="NKREDX">     1</i>
   <i type="int" name="NKREDY">     1</i>
   <i type="int" name="NKREDZ">     1</i>
   <i type="logical" name="SHIFTRED"> F  </i>
   <i type="logical" name="ODDONLY"> F  </i>
   <i type="logical" name="EVENONLY"> F  </i>
   <i type="int" name="LMAXFOCK">     0</i>
   <i type="int" name="NMAXFOCKAE">     0</i>
   <i type="logical" name="LFOCKAEDFT"> F  </i>
   <i name="HFSCREEN">      0.00000000</i>
   <i name="HFSCREENC">      0.00000000</i>
   <i type="int" name="NBANDSGWLOW">     0</i>
  </separator>
  <separator name="vdW DFT" >
   <i type="logical" name="LUSE_VDW"> F  </i>
   <i type="int" name="IVDW_NL">     1</i>
   <i type="logical" name="LSPIN_VDW"> F  </i>
   <i name="Zab_VDW">     -0.84910000</i>
   <i name="PARAM1">      0.12340000</i>
   <i name="PARAM2">      1.00000000</i>
   <i name="PARAM3">      0.00000000</i>
  </separator>
  <separator name="model GW" >
   <i type="int" name="MODEL_GW">     0</i>
   <i name="MODEL_EPS0">     38.63581999</i>
   <i name="MODEL_ALPHA">      1.00000000</i>
  </separator>
  <separator name="linear response parameters" >
   <i type="logical" name="LEPSILON"> F  </i>
   <i type="logical" name="LRPA"> F  </i>
   <i type="logical" name="LNABLA"> F  </i>
   <i type="logical" name="LVEL"> F  </i>
   <i name="CSHIFT">      0.10000000</i>
   <i name="OMEGAMAX">     -1.00000000</i>
   <i name="DEG_THRESHOLD">      0.00200000</i>
   <i name="RTIME">     -0.10000000</i>
   <i name="WPLASMAI">      0.00000000</i>
   <v name="DFIELD">      0.00000000      0.00000000      0.00000000</v>
   <v name="WPLASMA">      0.00000000      0.00000000      0.00000000      0.00000000      0.00000000      0.00000000      0.00000000      0.00000000      0.00000000</v>
  </separator>
  <separator name="orbital magnetization" >
   <i type="logical" name="NUCIND"> F  </i>
   <v name="MAGPOS">      0.00000000      0.00000000      0.00000000</v>
   <i type="logical" name="LNICSALL"> T  </i>
   <i type="logical" name="ORBITALMAG"> F  </i>
   <i type="logical" name="LMAGBLOCH"> F  </i>
   <i type="logical" name="LCHIMAG"> F  </i>
   <i type="logical" name="LGAUGE"> T  </i>
   <i type="int" name="MAGATOM">     0</i>
   <v name="MAGDIPOL">      0.00000000      0.00000000      0.00000000</v>
   <v name="AVECCONST">      0.00000000      0.00000000      0.00000000</v>
  </separator>
  <separator name="response functions" >
   <i type="logical" name="LALL_IN_ONE"> F  </i>
   <i type="int" name="IALL_IN_ONE">    -1</i>
   <i type="int" name="NBANDS_WAVE">    -1</i>
   <i type="logical" name="LFINITE_TEMPERATURE"> F  </i>
   <i type="logical" name="LADDER"> F  </i>
   <i type="logical" name="LRPAFORCE"> F  </i>
   <i type="logical" name="LFXC"> F  </i>
   <i type="logical" name="LHARTREE"> T  </i>
   <i type="int" name="IBSE">     0</i>
   <v type="int" name="KPOINT">    -1     0     0     0</v>
   <i type="logical" name="LTCTC"> F  </i>
   <i type="logical" name="LTCTE"> F  </i>
   <i type="logical" name="LTETE"> F  </i>
   <i type="logical" name="LTRIPLET"> F  </i>
   <i type="logical" name="LFXCEPS"> F  </i>
   <i type="logical" name="LFXHEG"> F  </i>
   <i type="int" name="NATURALO">     2</i>
   <i type="logical" name="LHOLEGF"> F  </i>
   <i type="logical" name="L2ORDER"> F  </i>
   <i type="logical" name="LDMP1"> F  </i>
   <i type="logical" name="LMP2LT"> F  </i>
   <i type="logical" name="LSMP2LT"> F  </i>
   <i type="logical" name="LGWLF"> F  </i>
   <i name="ENCUTGW">     -1.60000002</i>
   <i name="ENCUTGWSOFT">     -1.60000002</i>
   <i name="ENCUTLF">     -1.00000000</i>
   <i type="logical" name="LESF_SPLINES"> F  </i>
   <i type="int" name="LMAXMP2">    -1</i>
   <i name="SCISSOR">      0.00000000</i>
   <i type="int" name="NOMEGA">     0</i>
   <i type="int" name="NOMEGAR">     0</i>
   <i type="int" name="NBANDSGW">    -1</i>
   <i type="int" name="NBANDSO">    -1</i>
   <i type="int" name="NBANDSV">    -1</i>
   <i type="int" name="NELMGW">     1</i>
   <i type="int" name="NELMHF">     1</i>
   <i type="int" name="DIM">     3</i>
   <i type="int" name="IESPILON">     4</i>
   <i type="int" name="ANTIRES">     0</i>
   <i name="OMEGAMAX">    -30.00000000</i>
   <i name="OMEGAMIN">    -30.00000000</i>
   <i name="OMEGATL">   -200.00000000</i>
   <i type="int" name="OMEGAGRID">     0</i>
   <i name="CSHIFT">     -0.10000000</i>
   <i type="logical" name="LSELFENERGY"> F  </i>
   <i type="logical" name="LSPECTRAL"> F  </i>
   <i type="logical" name="LSPECTRALGW"> F  </i>
   <i type="logical" name="LSINGLES"> F  </i>
   <i type="logical" name="LFERMIGW"> F  </i>
   <i type="logical" name="ODDONLYGW"> F  </i>
   <i type="logical" name="EVENONLYGW"> F  </i>
   <i type="int" name="NKREDLFX">     1</i>
   <i type="int" name="NKREDLFY">     1</i>
   <i type="int" name="NKREDLFZ">     1</i>
   <i type="int" name="MAXMEM">  2800</i>
   <i type="int" name="TELESCOPE">     0</i>
   <i type="int" name="NTAUPAR">    -1</i>
   <i type="int" name="NOMEGAPAR">    -1</i>
   <i name="DAMP_NEWTON">      0.80000001</i>
   <i name="LAMBDA">      1.00000000</i>
  </separator>
  <separator name="External order field" >
   <i name="OFIELD_KAPPA">      0.00000000</i>
   <v name="OFIELD_K">      0.00000000      0.00000000      0.00000000</v>
   <i name="OFIELD_Q6_NEAR">      0.00000000</i>
   <i name="OFIELD_Q6_FAR">      0.00000000</i>
   <i name="OFIELD_A">      0.00000000</i>
  </separator>
  <separator name="optional k-points parameters" >
   <i type="int" name="KPOINTS_OPT_MODE">     1</i>
   <i type="logical" name="LKPOINTS_OPT"> F  </i>
  </separator>
  <separator name="solvation model" >
   <i type="logical" name="LSOL"> F  </i>
  </separator>
 </parameters>
 <atominfo>
  <atoms>      16 </atoms>
  <types>       4 </types>
  <array name="atoms" >
   <dimension dim="1">ion</dimension>
   <field type="string">element</field>
   <field type="int">atomtype</field>
   <set>
    <rc><c>C </c><c>   1</c></rc>
    <rc><c>C </c><c>   1</c></rc>
    <rc><c>C </c><c>   1</c></rc>
    <rc><c>C </c><c>   1</c></rc>
    <rc><c>C </c><c>   1</c></rc>
    <rc><c>C </c><c>   1</c></rc>
    <rc><c>F </c><c>   2</c></rc>
    <rc><c>H </c><c>   3</c></rc>
    <rc><c>H </c><c>   3</c></rc>
    <rc><c>H </c><c>   3</c></rc>
    <rc><c>H </c><c>   3</c></rc>
    <rc><c>H </c><c>   3</c></rc>
    <rc><c>H </c><c>   3</c></rc>
    <rc><c>H </c><c>   3</c></rc>
    <rc><c>N </c><c>   4</c></rc>
    <rc><c>N </c><c>   4</c></rc>
   </set>
  </array>
  <array name="atomtypes" >
   <dimension dim="1">type</dimension>
   <field type="int">atomspertype</field>
   <field type="string">element</field>
   <field>mass</field>
   <field>valence</field>
   <field type="string">pseudopotential</field>
   <set>
    <rc><c>   6</c><c>C </c><c>     12.01100000</c><c>      4.00000000</c><c>  PAW_PBE C 08Apr2002                   </c></rc>
    <rc><c>   1</c><c>F </c><c>     18.99800000</c><c>      7.00000000</c><c>  PAW_PBE F 08Apr2002                   </c></rc>
    <rc><c>   7</c><c>H </c><c>      1.00000000</c><c>      1.00000000</c><c>  PAW_PBE H 15Jun2001                   </c></rc>
    <rc><c>   2</c><c>N </c><c>     14.00100000</c><c>      5.00000000</c><c>  PAW_PBE N 08Apr2002                   </c></rc>
   </set>
  </array>
 </atominfo>
 <structure name="initialpos" >
  <crystal>
   <varray name="basis" >
    <v>       7.75910000       0.00000000       0.00000000 </v>
    <v>       0.00000000      11.73340000       0.00000000 </v>
    <v>       0.00000000       0.00000000      11.31680000 </v>
   </varray>
   <i name="volume">   1030.28853300 </i>
   <varray name="rec_basis" >
    <v>       0.12888093       0.00000000       0.00000000 </v>
    <v>       0.00000000       0.08522679       0.00000000 </v>
    <v>       0.00000000       0.00000000       0.08836420 </v>
   </varray>
  </crystal>
  <varray name="positions" >
   <v>       0.49989045       0.71022040       0.54373144 </v>
   <v>       0.49998067       0.58205635       0.54586102 </v>
   <v>       0.50005800       0.51915898       0.44226283 </v>
   <v>       0.50017399       0.40030170       0.44177683 </v>
   <v>       0.50156590       0.34833893       0.55326594 </v>
   <v>       0.50047042       0.51886069       0.65062562 </v>
   <v>       0.50117926       0.57310754       0.33729500 </v>
   <v>       0.61335722       0.74368043       0.49779089 </v>
   <v>       0.38664278       0.74355259       0.49747278 </v>
   <v>       0.49961980       0.74431963       0.63356249 </v>
   <v>       0.53395368       0.38329896       0.26509261 </v>
   <v>       0.54181542       0.26024852       0.34012265 </v>
   <v>       0.50240363       0.25568037       0.55875336 </v>
   <v>       0.50019977       0.56337464       0.73490739 </v>
   <v>       0.49199005       0.33963727       0.33636717 </v>
   <v>       0.50166901       0.40532156       0.65492896 </v>
  </varray>
 </structure>
 <calculation>
  <scstep>
   <time name="diag">    0.14    0.36</time>
   <time name="diis">    0.18    0.18</time>
   <time name="orth">    0.01    0.01</time>
   <time name="total">    0.53    0.81</time>
   <energy>
    <i name="alphaZ">      9.71200593 </i>
    <i name="ewald">   1906.70096774 </i>
    <i name="hartreedc">  -3537.57336311 </i>
    <i name="XCdc">    171.52942128 </i>
    <i name="pawpsdc">   1615.14374411 </i>
    <i name="pawaedc">  -1626.10587105 </i>
    <i name="eentropy">     -0.00000000 </i>
    <i name="bandstr">     93.70065765 </i>
    <i name="atom">   2158.97731088 </i>
    <i name="e_fr_energy">    792.08487343 </i>
    <i name="e_wo_entrp">    792.08487343 </i>
    <i name="e_0_energy">    792.08487343 </i>
   </energy>
  </scstep>
  <scstep>
   <time name="diag">    0.09    0.10</time>
   <time name="diis">    0.17    0.18</time>
   <time name="orth">    0.00    0.00</time>
   <time name="total">    0.27    0.28</time>
   <energy>
    <i name="e_fr_energy">    408.47473523 </i>
    <i name="e_wo_entrp">    408.55114026 </i>
    <i name="e_0_energy">    408.51293774 </i>
   </energy>
  </scstep>
  <scstep>
   <time name="diag">    0.08    0.08</time>
   <time name="diis">    0.17    0.17</time>
   <time name="orth">    0.01    0.01</time>
   <time name="total">    0.25    0.25</time>
   <energy>
    <i name="e_fr_energy">    246.23021536 </i>
    <i name="e_wo_entrp">    246.26890270 </i>
    <i name="e_0_energy">    246.24955903 </i>
   </energy>
  </scstep>
  <scstep>
   <time name="diag">    0.08    0.08</time>
   <time name="diis">    0.17    0.17</time>
   <time name="orth">    0.00    0.00</time>
   <time name="total">    0.25    0.25</time>
   <energy>
    <i name="e_fr_energy">     75.56131203 </i>
    <i name="e_wo_entrp">     75.56131293 </i>
    <i name="e_0_energy">     75.56131248 </i>
   </energy>
  </scstep>
  <scstep>
   <time name="diag">    0.08    0.08</time>
   <time name="diis">    0.17    0.17</time>
   <time name="orth">    0.00    0.00</time>
   <time name="total">    0.25    0.26</time>
   <energy>
    <i name="e_fr_energy">     -7.45083782 </i>
    <i name="e_wo_entrp">     -7.38744717 </i>
    <i name="e_0_energy">     -7.41914250 </i>
   </energy>
  </scstep>
  <scstep>
   <time name="diag">    0.08    0.08</time>
   <time name="diis">    0.17    0.17</time>
   <time name="orth">    0.00    0.00</time>
   <time name="total">    0.25    0.26</time>
   <energy>
    <i name="e_fr_energy">    -69.04293060 </i>
    <i name="e_wo_entrp">    -69.04276099 </i>
    <i name="e_0_energy">    -69.04284579 </i>
   </energy>
  </scstep>
  <scstep>
   <time name="diag">    0.08    0.08</time>
   <time name="diis">    0.17    0.17</time>
   <time name="orth">    0.01    0.01</time>
   <time name="total">    0.25    0.26</time>
   <energy>
    <i name="e_fr_energy">    -94.37756554 </i>
    <i name="e_wo_entrp">    -94.37756554 </i>
    <i name="e_0_energy">    -94.37756554 </i>
   </energy>
  </scstep>
  <scstep>
   <time name="diag">    0.08    0.08</time>
   <time name="diis">    0.17    0.17</time>
   <time name="orth">    0.00    0.00</time>
   <time name="total">    0.26    0.26</time>
   <energy>
    <i name="e_fr_energy">   -104.65251034 </i>
    <i name="e_wo_entrp">   -104.65251034 </i>
    <i name="e_0_energy">   -104.65251034 </i>
   </energy>
  </scstep>
  <scstep>
   <time name="diag">    0.07    0.08</time>
   <time name="diis">    0.17    0.17</time>
   <time name="orth">    0.00    0.00</time>
   <time name="total">    0.25    0.25</time>
   <energy>
    <i name="e_fr_energy">   -108.25701573 </i>
    <i name="e_wo_entrp">   -108.25701573 </i>
    <i name="e_0_energy">   -108.25701573 </i>
   </energy>
  </scstep>
  <scstep>
   <time name="diag">    0.07    0.07</time>
   <time name="diis">    0.18    0.18</time>
   <time name="orth">    0.00    0.00</time>
   <time name="total">    0.25    0.25</time>
   <energy>
    <i name="e_fr_energy">   -109.42820849 </i>
    <i name="e_wo_entrp">   -109.42820849 </i>
    <i name="e_0_energy">   -109.42820849 </i>
   </energy>
  </scstep>
  <scstep>
   <time name="diag">    0.08    0.08</time>
   <time name="diis">    0.18    0.18</time>
   <time name="orth">    0.00    0.00</time>
   <time name="total">    0.26    0.26</time>
   <energy>
    <i name="e_fr_energy">   -109.80718555 </i>
    <i name="e_wo_entrp">   -109.80718555 </i>
    <i name="e_0_energy">   -109.80718555 </i>
   </energy>
  </scstep>
  <scstep>
   <time name="diag">    0.08    0.08</time>
   <time name="diis">    0.17    0.17</time>
   <time name="orth">    0.00    0.00</time>
   <time name="total">    0.25    0.26</time>
   <energy>
    <i name="e_fr_energy">   -109.97616280 </i>
    <i name="e_wo_entrp">   -109.97616280 </i>
    <i name="e_0_energy">   -109.97616280 </i>
   </energy>
  </scstep>
  <scstep>
   <time name="diag">    0.07    0.07</time>
   <time name="diis">    0.17    0.17</time>
   <time name="orth">    0.00    0.00</time>
   <time name="total">    0.25    0.25</time>
   <energy>
    <i name="e_fr_energy">   -110.03211134 </i>
    <i name="e_wo_entrp">   -110.03211134 </i>
    <i name="e_0_energy">   -110.03211134 </i>
   </energy>
  </scstep>
  <scstep>
   <time name="diag">    0.08    0.08</time>
   <time name="diis">    0.18    0.18</time>
   <time name="orth">    0.00    0.01</time>
   <time name="total">    0.26    0.26</time>
   <energy>
    <i name="e_fr_energy">   -110.05520418 </i>
    <i name="e_wo_entrp">   -110.05520418 </i>
    <i name="e_0_energy">   -110.05520418 </i>
   </energy>
  </scstep>
  <scstep>
   <time name="diag">    0.08    0.08</time>
   <time name="diis">    0.33    0.33</time>
   <time name="orth">    0.00    0.00</time>
   <time name="total">    0.41    0.42</time>
   <energy>
    <i name="e_fr_energy">   -110.06883670 </i>
    <i name="e_wo_entrp">   -110.06883670 </i>
    <i name="e_0_energy">   -110.06883670 </i>
   </energy>
  </scstep>
  <scstep>
   <time name="diag">    0.07    0.07</time>
   <time name="diis">    0.32    0.33</time>
   <time name="orth">    0.00    0.00</time>
   <time name="total">    0.40    0.41</time>
   <energy>
    <i name="e_fr_energy">   -110.07123944 </i>
    <i name="e_wo_entrp">   -110.07123944 </i>
    <i name="e_0_energy">   -110.07123944 </i>
   </energy>
  </scstep>
  <scstep>
   <time name="diag">    0.08    0.08</time>
   <time name="diis">    0.36    0.36</time>
   <time name="orth">    0.00    0.00</time>
   <time name="total">    0.44    0.44</time>
   <energy>
    <i name="e_fr_energy">   -110.07176622 </i>
    <i name="e_wo_entrp">   -110.07176622 </i>
    <i name="e_0_energy">   -110.07176622 </i>
   </energy>
  </scstep>
  <scstep>
   <time name="diag">    0.08    0.08</time>
   <time name="diis">    0.24    0.25</time>
   <time name="orth">    0.00    0.01</time>
   <time name="total">    0.32    0.33</time>
   <energy>
    <i name="e_fr_energy">   -110.07178492 </i>
    <i name="e_wo_entrp">   -110.07178492 </i>
    <i name="e_0_energy">   -110.07178492 </i>
   </energy>
  </scstep>
  <scstep>
   <time name="diag">    0.08    0.08</time>
   <time name="diis">    0.21    0.21</time>
   <time name="orth">    0.00    0.00</time>
   <time name="total">    0.29    0.30</time>
   <energy>
    <i name="e_fr_energy">   -110.07178576 </i>
    <i name="e_wo_entrp">   -110.07178576 </i>
    <i name="e_0_energy">   -110.07178576 </i>
   </energy>
  </scstep>
  <scstep>
   <time name="diag">    0.08    0.08</time>
   <time name="diis">    0.20    0.20</time>
   <time name="orth">    0.01    0.01</time>
   <time name="total">    0.34    0.35</time>
   <energy>
    <i name="e_fr_energy">   -110.07178605 </i>
    <i name="e_wo_entrp">   -110.07178605 </i>
    <i name="e_0_energy">   -110.07178605 </i>
   </energy>
  </scstep>
  <scstep>
   <time name="diag">    0.08    0.08</time>
   <time name="diis">    0.43    0.43</time>
   <time name="orth">    0.00    0.01</time>
   <time name="total">    0.77    0.79</time>
   <energy>
    <i name="e_fr_energy">   -102.35625634 </i>
    <i name="e_wo_entrp">   -102.35625634 </i>
    <i name="e_0_energy">   -102.35625634 </i>
   </energy>
  </scstep>
  <scstep>
   <time name="diag">    0.08    0.08</time>
   <time name="diis">    0.44    0.45</time>
   <time name="orth">    0.00    0.00</time>
   <time name="total">    0.79    0.80</time>
   <energy>
    <i name="e_fr_energy">   -100.62448038 </i>
    <i name="e_wo_entrp">   -100.62448038 </i>
    <i name="e_0_energy">   -100.62448038 </i>
   </energy>
  </scstep>
  <scstep>
   <time name="diag">    0.08    0.08</time>
   <time name="diis">    0.48    0.49</time>
   <time name="orth">    0.01    0.01</time>
   <time name="total">    0.81    0.83</time>
   <energy>
    <i name="e_fr_energy">   -100.31429504 </i>
    <i name="e_wo_entrp">   -100.31429504 </i>
    <i name="e_0_energy">   -100.31429504 </i>
   </energy>
  </scstep>
  <scstep>
   <time name="diag">    0.07    0.07</time>
   <time name="diis">    0.44    0.45</time>
   <time name="orth">    0.00    0.00</time>
   <time name="total">    0.74    0.75</time>
   <energy>
    <i name="e_fr_energy">   -100.27878519 </i>
    <i name="e_wo_entrp">   -100.27878519 </i>
    <i name="e_0_energy">   -100.27878519 </i>
   </energy>
  </scstep>
  <scstep>
   <time name="diag">    0.07    0.07</time>
   <time name="diis">    0.34    0.34</time>
   <time name="orth">    0.01    0.01</time>
   <time name="total">    0.64    0.65</time>
   <energy>
    <i name="e_fr_energy">   -100.27200968 </i>
    <i name="e_wo_entrp">   -100.27200968 </i>
    <i name="e_0_energy">   -100.27200968 </i>
   </energy>
  </scstep>
  <scstep>
   <time name="diag">    0.07    0.07</time>
   <time name="diis">    0.31    0.32</time>
   <time name="orth">    0.01    0.01</time>
   <time name="total">    0.64    0.65</time>
   <energy>
    <i name="e_fr_energy">   -100.27444069 </i>
    <i name="e_wo_entrp">   -100.27444069 </i>
    <i name="e_0_energy">   -100.27444069 </i>
   </energy>
  </scstep>
  <scstep>
   <time name="diag">    0.06    0.06</time>
   <time name="diis">    0.26    0.27</time>
   <time name="orth">    0.00    0.00</time>
   <time name="total">    0.59    0.60</time>
   <energy>
    <i name="e_fr_energy">   -100.28106686 </i>
    <i name="e_wo_entrp">   -100.28106686 </i>
    <i name="e_0_energy">   -100.28106686 </i>
   </energy>
  </scstep>
  <scstep>
   <time name="diag">    0.08    0.08</time>
   <time name="diis">    0.28    0.28</time>
   <time name="orth">    0.00    0.00</time>
   <time name="total">    0.61    0.62</time>
   <energy>
    <i name="e_fr_energy">   -100.28656419 </i>
    <i name="e_wo_entrp">   -100.28656419 </i>
    <i name="e_0_energy">   -100.28656419 </i>
   </energy>
  </scstep>
  <scstep>
   <time name="diag">    0.07    0.07</time>
   <time name="diis">    0.31    0.31</time>
   <time name="orth">    0.00    0.00</time>
   <time name="total">    0.62    0.63</time>
   <energy>
    <i name="e_fr_energy">   -100.29134501 </i>
    <i name="e_wo_entrp">   -100.29134501 </i>
    <i name="e_0_energy">   -100.29134501 </i>
   </energy>
  </scstep>
  <scstep>
   <time name="diag">    0.07    0.07</time>
   <time name="diis">    0.30    0.30</time>
   <time name="orth">    0.00    0.00</time>
   <time name="total">    0.61    0.62</time>
   <energy>
    <i name="e_fr_energy">   -100.29420946 </i>
    <i name="e_wo_entrp">   -100.29420946 </i>
    <i name="e_0_energy">   -100.29420946 </i>
   </energy>
  </scstep>
  <scstep>
   <time name="diag">    0.07    0.07</time>
   <time name="diis">    0.27    0.28</time>
   <time name="orth">    0.00    0.00</time>
   <time name="total">    0.57    0.58</time>
   <energy>
    <i name="e_fr_energy">   -100.29469558 </i>
    <i name="e_wo_entrp">   -100.29469558 </i>
    <i name="e_0_energy">   -100.29469558 </i>
   </energy>
  </scstep>
  <scstep>
   <time name="diag">    0.05    0.05</time>
   <time name="diis">    0.22    0.23</time>
   <time name="orth">    0.00    0.00</time>
   <time name="total">    0.52    0.53</time>
   <energy>
    <i name="e_fr_energy">   -100.29496192 </i>
    <i name="e_wo_entrp">   -100.29496192 </i>
    <i name="e_0_energy">   -100.29496192 </i>
   </energy>
  </scstep>
  <scstep>
   <time name="diag">    0.07    0.07</time>
   <time name="diis">    0.19    0.19</time>
   <time name="orth">    0.00    0.00</time>
   <time name="total">    0.53    0.54</time>
   <energy>
    <i name="e_fr_energy">   -100.29504371 </i>
    <i name="e_wo_entrp">   -100.29504371 </i>
    <i name="e_0_energy">   -100.29504371 </i>
   </energy>
  </scstep>
  <scstep>
   <time name="diag">    0.08    0.08</time>
   <time name="diis">    0.18    0.18</time>
   <time name="orth">    0.00    0.00</time>
   <time name="total">    0.50    0.51</time>
   <energy>
    <i name="e_fr_energy">   -100.29510016 </i>
    <i name="e_wo_entrp">   -100.29510016 </i>
    <i name="e_0_energy">   -100.29510016 </i>
   </energy>
  </scstep>
  <scstep>
   <time name="diag">    0.08    0.08</time>
   <time name="diis">    0.19    0.20</time>
   <time name="orth">    0.00    0.00</time>
   <time name="total">    0.52    0.52</time>
   <energy>
    <i name="e_fr_energy">   -100.29511202 </i>
    <i name="e_wo_entrp">   -100.29511202 </i>
    <i name="e_0_energy">   -100.29511202 </i>
   </energy>
  </scstep>
  <scstep>
   <time name="diag">    0.07    0.07</time>
   <time name="diis">    0.18    0.18</time>
   <time name="orth">    0.01    0.01</time>
   <time name="total">    0.45    0.45</time>
   <energy>
    <i name="alphaZ">      9.71200593 </i>
    <i name="ewald">   1906.70096774 </i>
    <i name="hartreedc">  -3730.47889512 </i>
    <i name="XCdc">    180.61869358 </i>
    <i name="pawpsdc">   4339.58108019 </i>
    <i name="pawaedc">  -4352.00764274 </i>
    <i name="eentropy">     -0.00000000 </i>
    <i name="bandstr">   -613.39863744 </i>
    <i name="atom">   2158.97731088 </i>
    <i name="e_fr_energy">   -100.29511700 </i>
    <i name="e_wo_entrp">   -100.29511700 </i>
    <i name="e_0_energy">   -100.29511700 </i>
   </energy>
  </scstep>
  <structure>
   <crystal>
    <varray name="basis" >
     <v>       7.75910000       0.00000000       0.00000000 </v>
     <v>       0.00000000      11.73340000       0.00000000 </v>
     <v>       0.00000000       0.00000000      11.31680000 </v>
    </varray>
    <i name="volume">   1030.28853300 </i>
    <varray name="rec_basis" >
     <v>       0.12888093       0.00000000       0.00000000 </v>
     <v>       0.00000000       0.08522679       0.00000000 </v>
     <v>       0.00000000       0.00000000       0.08836420 </v>
    </varray>
   </crystal>
   <varray name="positions" >
    <v>       0.49989045       0.71022040       0.54373144 </v>
    <v>       0.49998067       0.58205635       0.54586102 </v>
    <v>       0.50005800       0.51915898       0.44226283 </v>
    <v>       0.50017399       0.40030170       0.44177683 </v>
    <v>       0.50156590       0.34833893       0.55326594 </v>
    <v>       0.50047042       0.51886069       0.65062562 </v>
    <v>       0.50117926       0.57310754       0.33729500 </v>
    <v>       0.61335722       0.74368043       0.49779089 </v>
    <v>       0.38664278       0.74355259       0.49747278 </v>
    <v>       0.49961980       0.74431963       0.63356249 </v>
    <v>       0.53395368       0.38329896       0.26509261 </v>
    <v>       0.54181542       0.26024852       0.34012265 </v>
    <v>       0.50240363       0.25568037       0.55875336 </v>
    <v>       0.50019977       0.56337464       0.73490739 </v>
    <v>       0.49199005       0.33963727       0.33636717 </v>
    <v>       0.50166901       0.40532156       0.65492896 </v>
   </varray>
  </structure>
  <varray name="forces" >
   <v>       0.00551599      -0.18787228       0.02333122 </v>
   <v>      -0.00542991       0.34516458      -0.00004572 </v>
   <v>      -0.02157376      -0.28122980       0.69327602 </v>
   <v>      -0.00132015      -0.13476440      -0.23918546 </v>
   <v>      -0.00948278      -0.08564380       0.02855579 </v>
   <v>      -0.00277149       0.08803942       0.02819593 </v>
   <v>       0.01262240       0.48469317      -0.89571806 </v>
   <v>       0.12108695       0.04227583      -0.07578966 </v>
   <v>      -0.12548975       0.04461084      -0.07803596 </v>
   <v>      -0.00102955       0.03900859       0.15296709 </v>
   <v>       0.03659477       0.10361173      -0.27086626 </v>
   <v>       0.04860975      -0.25771177       0.00002880 </v>
   <v>       0.00039521      -0.23736501       0.00932978 </v>
   <v>      -0.00115600       0.12202440       0.20122559 </v>
   <v>      -0.06105042       0.09186499       0.20816878 </v>
   <v>       0.00447875      -0.17670648       0.21456211 </v>
  </varray>
  <varray name="stress" >
   <v>       0.13489019      -0.11622721      -0.14547703 </v>
   <v>      -0.11622722       3.15189598      -0.68461367 </v>
   <v>      -0.14547701      -0.68461368       4.08004306 </v>
  </varray>
  <energy>
   <i name="e_fr_energy">   -100.29511700 </i>
   <i name="e_wo_entrp">   -100.29511700 </i>
   <i name="e_0_energy">   -100.29511700 </i>
  </energy>
  <time name="totalsc">   17.01   17.71</time>
 </calculation>
 <calculation>
  <scstep>
   <time name="diag">    0.07    0.08</time>
   <time name="diis">    0.26    0.26</time>
   <time name="orth">    0.00    0.00</time>
   <time name="total">    0.60    0.61</time>
   <energy>
    <i name="alphaZ">      9.71200593 </i>
    <i name="ewald">   1892.60638905 </i>
    <i name="hartreedc">  -3719.18668779 </i>
    <i name="XCdc">    180.48630985 </i>
    <i name="pawpsdc">   4339.57869642 </i>
    <i name="pawaedc">  -4352.00528098 </i>
    <i name="eentropy">     -0.00000000 </i>
    <i name="bandstr">   -610.46534690 </i>
    <i name="atom">   2158.97731088 </i>
    <i name="e_fr_energy">   -100.29660353 </i>
    <i name="e_wo_entrp">   -100.29660353 </i>
    <i name="e_0_energy">   -100.29660353 </i>
   </energy>
  </scstep>
  <scstep>
   <time name="diag">    0.06    0.06</time>
   <time name="diis">    0.23    0.23</time>
   <time name="orth">    0.00    0.00</time>
   <time name="total">    0.54    0.55</time>
   <energy>
    <i name="e_fr_energy">   -100.30876731 </i>
    <i name="e_wo_entrp">   -100.30876731 </i>
    <i name="e_0_energy">   -100.30876731 </i>
   </energy>
  </scstep>
  <scstep>
   <time name="diag">    0.07    0.07</time>
   <time name="diis">    0.22    0.22</time>
   <time name="orth">    0.00    0.00</time>
   <time name="total">    0.48    0.49</time>
   <energy>
    <i name="e_fr_energy">   -100.31043701 </i>
    <i name="e_wo_entrp">   -100.31043701 </i>
    <i name="e_0_energy">   -100.31043701 </i>
   </energy>
  </scstep>
  <scstep>
   <time name="diag">    0.07    0.07</time>
   <time name="diis">    0.29    0.30</time>
   <time name="orth">    0.00    0.00</time>
   <time name="total">    0.60    0.61</time>
   <energy>
    <i name="e_fr_energy">   -100.30999467 </i>
    <i name="e_wo_entrp">   -100.30999467 </i>
    <i name="e_0_energy">   -100.30999467 </i>
   </energy>
  </scstep>
  <scstep>
   <time name="diag">    0.07    0.08</time>
   <time name="diis">    0.30    0.30</time>
   <time name="orth">    0.00    0.01</time>
   <time name="total">    0.61    0.62</time>
   <energy>
    <i name="e_fr_energy">   -100.30995546 </i>
    <i name="e_wo_entrp">   -100.30995546 </i>
    <i name="e_0_energy">   -100.30995546 </i>
   </energy>
  </scstep>
  <scstep>
   <time name="diag">    0.05    0.05</time>
   <time name="diis">    0.28    0.29</time>
   <time name="orth">    0.00    0.00</time>
   <time name="total">    0.57    0.58</time>
   <energy>
    <i name="e_fr_energy">   -100.31001856 </i>
    <i name="e_wo_entrp">   -100.31001856 </i>
    <i name="e_0_energy">   -100.31001856 </i>
   </energy>
  </scstep>
  <scstep>
   <time name="diag">    0.07    0.07</time>
   <time name="diis">    0.24    0.24</time>
   <time name="orth">    0.00    0.00</time>
   <time name="total">    0.56    0.56</time>
   <energy>
    <i name="e_fr_energy">   -100.31004648 </i>
    <i name="e_wo_entrp">   -100.31004648 </i>
    <i name="e_0_energy">   -100.31004648 </i>
   </energy>
  </scstep>
  <scstep>
   <time name="diag">    0.07    0.07</time>
   <time name="diis">    0.21    0.22</time>
   <time name="orth">    0.00    0.00</time>
   <time name="total">    0.55    0.55</time>
   <energy>
    <i name="e_fr_energy">   -100.31011926 </i>
    <i name="e_wo_entrp">   -100.31011926 </i>
    <i name="e_0_energy">   -100.31011926 </i>
   </energy>
  </scstep>
  <scstep>
   <time name="diag">    0.08    0.08</time>
   <time name="diis">    0.19    0.19</time>
   <time name="orth">    0.00    0.00</time>
   <time name="total">    0.52    0.53</time>
   <energy>
    <i name="e_fr_energy">   -100.31016674 </i>
    <i name="e_wo_entrp">   -100.31016674 </i>
    <i name="e_0_energy">   -100.31016674 </i>
   </energy>
  </scstep>
  <scstep>
   <time name="diag">    0.07    0.07</time>
   <time name="diis">    0.23    0.23</time>
   <time name="orth">    0.01    0.01</time>
   <time name="total">    0.54    0.55</time>
   <energy>
    <i name="e_fr_energy">   -100.31024396 </i>
    <i name="e_wo_entrp">   -100.31024396 </i>
    <i name="e_0_energy">   -100.31024396 </i>
   </energy>
  </scstep>
  <scstep>
   <time name="diag">    0.07    0.07</time>
   <time name="diis">    0.20    0.21</time>
   <time name="orth">    0.00    0.00</time>
   <time name="total">    0.51    0.52</time>
   <energy>
    <i name="e_fr_energy">   -100.31027190 </i>
    <i name="e_wo_entrp">   -100.31027190 </i>
    <i name="e_0_energy">   -100.31027190 </i>
   </energy>
  </scstep>
  <scstep>
   <time name="diag">    0.05    0.05</time>
   <time name="diis">    0.19    0.19</time>
   <time name="orth">    0.00    0.00</time>
   <time name="total">    0.48    0.49</time>
   <energy>
    <i name="e_fr_energy">   -100.31028972 </i>
    <i name="e_wo_entrp">   -100.31028972 </i>
    <i name="e_0_energy">   -100.31028972 </i>
   </energy>
  </scstep>
  <scstep>
   <time name="diag">    0.07    0.07</time>
   <time name="diis">    0.14    0.14</time>
   <time name="orth">    0.00    0.00</time>
   <time name="total">    0.43    0.44</time>
   <energy>
    <i name="alphaZ">      9.71200593 </i>
    <i name="ewald">   1892.60638905 </i>
    <i name="hartreedc">  -3717.90369354 </i>
    <i name="XCdc">    180.40674607 </i>
    <i name="pawpsdc">   4309.44957651 </i>
    <i name="pawaedc">  -4321.83872215 </i>
    <i name="eentropy">     -0.00000000 </i>
    <i name="bandstr">   -611.71990830 </i>
    <i name="atom">   2158.97731088 </i>
    <i name="e_fr_energy">   -100.31029554 </i>
    <i name="e_wo_entrp">   -100.31029554 </i>
    <i name="e_0_energy">   -100.31029554 </i>
   </energy>
  </scstep>
  <structure>
   <crystal>
    <varray name="basis" >
     <v>       7.75910000       0.00000000       0.00000000 </v>
     <v>       0.00000000      11.73340000       0.00000000 </v>
     <v>       0.00000000       0.00000000      11.31680000 </v>
    </varray>
    <i name="volume">   1030.28853300 </i>
    <varray name="rec_basis" >
     <v>       0.12888093       0.00000000       0.00000000 </v>
     <v>       0.00000000       0.08522679       0.00000000 </v>
     <v>       0.00000000       0.00000000       0.08836420 </v>
    </varray>
   </crystal>
   <varray name="positions" >
    <v>       0.49990417       0.70991142       0.54377123 </v>
    <v>       0.49996716       0.58262402       0.54586094 </v>
    <v>       0.50000434       0.51869646       0.44344498 </v>
    <v>       0.50017071       0.40008007       0.44136898 </v>
    <v>       0.50154232       0.34819808       0.55331463 </v>
    <v>       0.50046352       0.51900548       0.65067370 </v>
    <v>       0.50121065       0.57390468       0.33576764 </v>
    <v>       0.61365837       0.74374996       0.49766166 </v>
    <v>       0.38633068       0.74362596       0.49733972 </v>
    <v>       0.49961724       0.74438379       0.63382333 </v>
    <v>       0.53404469       0.38346936       0.26463073 </v>
    <v>       0.54193631       0.25982468       0.34012270 </v>
    <v>       0.50240461       0.25528999       0.55876927 </v>
    <v>       0.50019689       0.56357532       0.73525052 </v>
    <v>       0.49183822       0.33978836       0.33672213 </v>
    <v>       0.50168015       0.40503094       0.65529482 </v>
   </varray>
  </structure>
  <varray name="forces" >
   <v>       0.00431067       0.21661018      -0.00322063 </v>
   <v>      -0.00327214      -0.02762779       0.21646951 </v>
   <v>      -0.01009420       0.27693207      -0.54648167 </v>
   <v>       0.00614667      -0.04877488       0.24425105 </v>
   <v>      -0.00329276      -0.14785457       0.05615842 </v>
   <v>      -0.00363423      -0.00534054       0.15162123 </v>
   <v>      -0.02091755      -0.01339855       0.07193526 </v>
   <v>       0.01601328      -0.01216458      -0.01858389 </v>
   <v>      -0.00969619      -0.01196927      -0.01678922 </v>
   <v>       0.00173757      -0.01462498       0.03996150 </v>
   <v>      -0.08727818      -0.04384445       0.01361722 </v>
   <v>      -0.07118337       0.01026076       0.00863411 </v>
   <v>       0.00224017      -0.14446766       0.00323508 </v>
   <v>       0.00118088       0.06811927       0.10261051 </v>
   <v>       0.17521730      -0.14408229      -0.33713804 </v>
   <v>       0.00252207       0.04222728       0.01371956 </v>
  </varray>
  <varray name="stress" >
   <v>      -0.25131089       0.00254079       0.04453105 </v>
   <v>       0.00254079       1.88717772       0.71839580 </v>
   <v>       0.04453103       0.71839580       1.77418921 </v>
  </varray>
  <energy>
   <i name="e_fr_energy">   -100.31029554 </i>
   <i name="e_wo_entrp">   -100.31029554 </i>
   <i name="e_0_energy">   -100.31029554 </i>
  </energy>
  <time name="totalsc">    8.11    8.32</time>
 </calculation>
 <calculation>
  <scstep>
   <time name="diag">    0.07    0.07</time>
   <time name="diis">    0.24    0.25</time>
   <time name="orth">    0.00    0.00</time>
   <time name="total">    0.58    0.59</time>
   <energy>
    <i name="alphaZ">      9.71200593 </i>
    <i name="ewald">   1895.89639420 </i>
    <i name="hartreedc">  -3720.54965196 </i>
    <i name="XCdc">    180.43719534 </i>
    <i name="pawpsdc">   4309.44581979 </i>
    <i name="pawaedc">  -4321.83502721 </i>
    <i name="eentropy">     -0.00000000 </i>
    <i name="bandstr">   -612.39503757 </i>
    <i name="atom">   2158.97731088 </i>
    <i name="e_fr_energy">   -100.31099060 </i>
    <i name="e_wo_entrp">   -100.31099060 </i>
    <i name="e_0_energy">   -100.31099060 </i>
   </energy>
  </scstep>
  <scstep>
   <time name="diag">    0.07    0.08</time>
   <time name="diis">    0.24    0.24</time>
   <time name="orth">    0.00    0.00</time>
   <time name="total">    0.58    0.59</time>
   <energy>
    <i name="e_fr_energy">   -100.31173437 </i>
    <i name="e_wo_entrp">   -100.31173437 </i>
    <i name="e_0_energy">   -100.31173437 </i>
   </energy>
  </scstep>
  <scstep>
   <time name="diag">    0.07    0.07</time>
   <time name="diis">    0.27    0.27</time>
   <time name="orth">    0.01    0.01</time>
   <time name="total">    0.61    0.62</time>
   <energy>
    <i name="e_fr_energy">   -100.31183246 </i>
    <i name="e_wo_entrp">   -100.31183246 </i>
    <i name="e_0_energy">   -100.31183246 </i>
   </energy>
  </scstep>
  <scstep>
   <time name="diag">    0.06    0.06</time>
   <time name="diis">    0.24    0.24</time>
   <time name="orth">    0.00    0.00</time>
   <time name="total">    0.55    0.56</time>
   <energy>
    <i name="e_fr_energy">   -100.31181422 </i>
    <i name="e_wo_entrp">   -100.31181422 </i>
    <i name="e_0_energy">   -100.31181422 </i>
   </energy>
  </scstep>
  <scstep>
   <time name="diag">    0.06    0.06</time>
   <time name="diis">    0.19    0.19</time>
   <time name="orth">    0.00    0.00</time>
   <time name="total">    0.46    0.47</time>
   <energy>
    <i name="e_fr_energy">   -100.31181043 </i>
    <i name="e_wo_entrp">   -100.31181043 </i>
    <i name="e_0_energy">   -100.31181043 </i>
   </energy>
  </scstep>
  <scstep>
   <time name="diag">    0.07    0.07</time>
   <time name="diis">    0.22    0.23</time>
   <time name="orth">    0.00    0.00</time>
   <time name="total">    0.49    0.50</time>
   <energy>
    <i name="alphaZ">      9.71200593 </i>
    <i name="ewald">   1895.89639420 </i>
    <i name="hartreedc">  -3720.84596890 </i>
    <i name="XCdc">    180.45563449 </i>
    <i name="pawpsdc">   4316.14498440 </i>
    <i name="pawaedc">  -4328.54282999 </i>
    <i name="eentropy">     -0.00000000 </i>
    <i name="bandstr">   -612.10934278 </i>
    <i name="atom">   2158.97731088 </i>
    <i name="e_fr_energy">   -100.31181176 </i>
    <i name="e_wo_entrp">   -100.31181176 </i>
    <i name="e_0_energy">   -100.31181176 </i>
   </energy>
  </scstep>
  <structure>
   <crystal>
    <varray name="basis" >
     <v>       7.75910000       0.00000000       0.00000000 </v>
     <v>       0.00000000      11.73340000       0.00000000 </v>
     <v>       0.00000000       0.00000000      11.31680000 </v>
    </varray>
    <i name="volume">   1030.28853300 </i>
    <varray name="rec_basis" >
     <v>       0.12888093       0.00000000       0.00000000 </v>
     <v>       0.00000000       0.08522679       0.00000000 </v>
     <v>       0.00000000       0.00000000       0.08836420 </v>
    </varray>
   </crystal>
   <varray name="positions" >
    <v>       0.49990093       0.70998442       0.54376183 </v>
    <v>       0.49997035       0.58248990       0.54586096 </v>
    <v>       0.50001702       0.51880574       0.44316568 </v>
    <v>       0.50017148       0.40013243       0.44146534 </v>
    <v>       0.50154789       0.34823136       0.55330313 </v>
    <v>       0.50046515       0.51897127       0.65066234 </v>
    <v>       0.50120324       0.57371634       0.33612851 </v>
    <v>       0.61358721       0.74373353       0.49769219 </v>
    <v>       0.38640442       0.74360863       0.49737116 </v>
    <v>       0.49961785       0.74436863       0.63376170 </v>
    <v>       0.53402319       0.38342910       0.26473986 </v>
    <v>       0.54190775       0.25992482       0.34012269 </v>
    <v>       0.50240438       0.25538222       0.55876551 </v>
    <v>       0.50019757       0.56352791       0.73516945 </v>
    <v>       0.49187409       0.33975266       0.33663827 </v>
    <v>       0.50167752       0.40509961       0.65520838 </v>
   </varray>
  </structure>
  <varray name="forces" >
   <v>       0.00099183       0.11665192       0.00160524 </v>
   <v>       0.00232548       0.05942040       0.16499307 </v>
   <v>      -0.01299753       0.16036818      -0.28566411 </v>
   <v>       0.00390931      -0.06953845       0.13518766 </v>
   <v>      -0.00501702      -0.13367755       0.04945749 </v>
   <v>      -0.00042930       0.02681409       0.12333608 </v>
   <v>      -0.01526654       0.08586854      -0.13226944 </v>
   <v>       0.04019873       0.00055820      -0.03184120 </v>
   <v>      -0.03688894       0.00125783      -0.03103827 </v>
   <v>       0.00082681      -0.00203838       0.06673187 </v>
   <v>      -0.05897363      -0.00996487      -0.05251800 </v>
   <v>      -0.04340201      -0.05229607       0.00654714 </v>
   <v>       0.00154020      -0.16655772       0.00465992 </v>
   <v>       0.00037844       0.08065213       0.12584625 </v>
   <v>       0.12008971      -0.08775064      -0.20644697 </v>
   <v>       0.00271446      -0.00976762       0.06141328 </v>
  </varray>
  <varray name="stress" >
   <v>      -0.17224657      -0.03050502       0.00129591 </v>
   <v>      -0.03050503       2.16049229       0.40733507 </v>
   <v>       0.00129590       0.40733505       2.27357058 </v>
  </varray>
  <energy>
   <i name="e_fr_energy">   -100.31181176 </i>
   <i name="e_wo_entrp">   -100.31181176 </i>
   <i name="e_0_energy">   -100.31181176 </i>
  </energy>
  <time name="totalsc">    4.34    4.55</time>
 </calculation>
 <calculation>
  <scstep>
   <time name="diag">    0.04    0.04</time>
   <time name="diis">    0.26    0.27</time>
   <time name="orth">    0.01    0.01</time>
   <time name="total">    0.56    0.57</time>
   <energy>
    <i name="alphaZ">      9.71200593 </i>
    <i name="ewald">   1888.11762614 </i>
    <i name="hartreedc">  -3714.07176987 </i>
    <i name="XCdc">    180.39110863 </i>
    <i name="pawpsdc">   4316.23864837 </i>
    <i name="pawaedc">  -4328.63608735 </i>
    <i name="eentropy">     -0.00000000 </i>
    <i name="bandstr">   -611.04357129 </i>
    <i name="atom">   2158.97731088 </i>
    <i name="e_fr_energy">   -100.31472857 </i>
    <i name="e_wo_entrp">   -100.31472857 </i>
    <i name="e_0_energy">   -100.31472857 </i>
   </energy>
  </scstep>
  <scstep>
   <time name="diag">    0.07    0.07</time>
   <time name="diis">    0.24    0.25</time>
   <time name="orth">    0.00    0.00</time>
   <time name="total">    0.57    0.58</time>
   <energy>
    <i name="e_fr_energy">   -100.31624911 </i>
    <i name="e_wo_entrp">   -100.31624911 </i>
    <i name="e_0_energy">   -100.31624911 </i>
   </energy>
  </scstep>
  <scstep>
   <time name="diag">    0.08    0.08</time>
   <time name="diis">    0.23    0.24</time>
   <time name="orth">    0.00    0.00</time>
   <time name="total">    0.57    0.58</time>
   <energy>
    <i name="e_fr_energy">   -100.31648263 </i>
    <i name="e_wo_entrp">   -100.31648263 </i>
    <i name="e_0_energy">   -100.31648263 </i>
   </energy>
  </scstep>
  <scstep>
   <time name="diag">    0.08    0.08</time>
   <time name="diis">    0.25    0.25</time>
   <time name="orth">    0.00    0.00</time>
   <time name="total">    0.59    0.60</time>
   <energy>
    <i name="e_fr_energy">   -100.31643638 </i>
    <i name="e_wo_entrp">   -100.31643638 </i>
    <i name="e_0_energy">   -100.31643638 </i>
   </energy>
  </scstep>
  <scstep>
   <time name="diag">    0.08    0.08</time>
   <time name="diis">    0.24    0.24</time>
   <time name="orth">    0.00    0.00</time>
   <time name="total">    0.56    0.57</time>
   <energy>
    <i name="e_fr_energy">   -100.31646094 </i>
    <i name="e_wo_entrp">   -100.31646094 </i>
    <i name="e_0_energy">   -100.31646094 </i>
   </energy>
  </scstep>
  <scstep>
   <time name="diag">    0.07    0.07</time>
   <time name="diis">    0.23    0.23</time>
   <time name="orth">    0.00    0.00</time>
   <time name="total">    0.47    0.48</time>
   <energy>
    <i name="alphaZ">      9.71200593 </i>
    <i name="ewald">   1888.11762614 </i>
    <i name="hartreedc">  -3713.35581084 </i>
    <i name="XCdc">    180.36378272 </i>
    <i name="pawpsdc">   4300.12591275 </i>
    <i name="pawaedc">  -4312.51136741 </i>
    <i name="eentropy">     -0.00000000 </i>
    <i name="bandstr">   -611.74592694 </i>
    <i name="atom">   2158.97731088 </i>
    <i name="e_fr_energy">   -100.31646676 </i>
    <i name="e_wo_entrp">   -100.31646676 </i>
    <i name="e_0_energy">   -100.31646676 </i>
   </energy>
  </scstep>
  <structure>
   <crystal>
    <varray name="basis" >
     <v>       7.75910000       0.00000000       0.00000000 </v>
     <v>       0.00000000      11.73340000       0.00000000 </v>
     <v>       0.00000000       0.00000000      11.31680000 </v>
    </varray>
    <i name="volume">   1030.28853300 </i>
    <varray name="rec_basis" >
     <v>       0.12888093       0.00000000       0.00000000 </v>
     <v>       0.00000000       0.08522679       0.00000000 </v>
     <v>       0.00000000       0.00000000       0.08836420 </v>
    </varray>
   </crystal>
   <varray name="positions" >
    <v>       0.49990546       0.71011813       0.54377075 </v>
    <v>       0.49997372       0.58267316       0.54612900 </v>
    <v>       0.49997770       0.51898357       0.44288934 </v>
    <v>       0.50018022       0.39998827       0.44162019 </v>
    <v>       0.50153226       0.34799953       0.55339121 </v>
    <v>       0.50046304       0.51903628       0.65087035 </v>
    <v>       0.50117205       0.57397749       0.33567105 </v>
    <v>       0.61373029       0.74374545       0.49761994 </v>
    <v>       0.38626745       0.74362225       0.49729960 </v>
    <v>       0.49961940       0.74437563       0.63391154 </v>
    <v>       0.53389791       0.38344055       0.26458118 </v>
    <v>       0.54182411       0.25977556       0.34013333 </v>
    <v>       0.50240819       0.25505924       0.55877561 </v>
    <v>       0.50019801       0.56368616       0.73542839 </v>
    <v>       0.49213453       0.33963916       0.33635925 </v>
    <v>       0.50168572       0.40503815       0.65536626 </v>
   </varray>
  </structure>
  <varray name="forces" >
   <v>      -0.00028123       0.13376417       0.03042670 </v>
   <v>      -0.00567974      -0.06045089      -0.07253282 </v>
   <v>      -0.01011880       0.11035662      -0.09793608 </v>
   <v>       0.00079603       0.03923995      -0.07530402 </v>
   <v>       0.00258096      -0.05662509       0.09744370 </v>
   <v>      -0.00907956      -0.01698844       0.09573842 </v>
   <v>      -0.01241003       0.01408402       0.00466273 </v>
   <v>       0.01797733      -0.00216993      -0.01566829 </v>
   <v>      -0.01215839      -0.00179445      -0.01452451 </v>
   <v>       0.00207883       0.00969066       0.03099732 </v>
   <v>      -0.02727118       0.00382071      -0.08669287 </v>
   <v>      -0.02618464      -0.06280458      -0.02156009 </v>
   <v>       0.00232705      -0.12595918       0.01211583 </v>
   <v>       0.00189944       0.05373111       0.09908982 </v>
   <v>       0.07500519      -0.04336405       0.00504739 </v>
   <v>       0.00051876       0.00546936       0.00869677 </v>
  </varray>
  <varray name="stress" >
   <v>      -0.19502808      -0.03585728      -0.04402677 </v>
   <v>      -0.03585726       1.28307926       0.21739253 </v>
   <v>      -0.04402676       0.21739253       1.12279413 </v>
  </varray>
  <energy>
   <i name="e_fr_energy">   -100.31646676 </i>
   <i name="e_wo_entrp">   -100.31646676 </i>
   <i name="e_0_energy">   -100.31646676 </i>
  </energy>
  <time name="totalsc">    4.39    4.54</time>
 </calculation>
 <calculation>
  <scstep>
   <time name="diag">    0.07    0.08</time>
   <time name="diis">    0.28    0.29</time>
   <time name="orth">    0.01    0.01</time>
   <time name="total">    0.58    0.59</time>
   <energy>
    <i name="alphaZ">      9.71200593 </i>
    <i name="ewald">   1885.17689859 </i>
    <i name="hartreedc">  -3710.78897000 </i>
    <i name="XCdc">    180.34060484 </i>
    <i name="pawpsdc">   4298.79926553 </i>
    <i name="pawaedc">  -4311.18676472 </i>
    <i name="eentropy">     -0.00000000 </i>
    <i name="bandstr">   -611.34713766 </i>
    <i name="atom">   2158.97731088 </i>
    <i name="e_fr_energy">   -100.31678661 </i>
    <i name="e_wo_entrp">   -100.31678661 </i>
    <i name="e_0_energy">   -100.31678661 </i>
   </energy>
  </scstep>
  <scstep>
   <time name="diag">    0.04    0.04</time>
   <time name="diis">    0.27    0.27</time>
   <time name="orth">    0.00    0.00</time>
   <time name="total">    0.56    0.57</time>
   <energy>
    <i name="e_fr_energy">   -100.31700182 </i>
    <i name="e_wo_entrp">   -100.31700182 </i>
    <i name="e_0_energy">   -100.31700182 </i>
   </energy>
  </scstep>
  <scstep>
   <time name="diag">    0.07    0.07</time>
   <time name="diis">    0.27    0.27</time>
   <time name="orth">    0.00    0.00</time>
   <time name="total">    0.59    0.60</time>
   <energy>
    <i name="e_fr_energy">   -100.31704425 </i>
    <i name="e_wo_entrp">   -100.31704425 </i>
    <i name="e_0_energy">   -100.31704425 </i>
   </energy>
  </scstep>
  <scstep>
   <time name="diag">    0.07    0.07</time>
   <time name="diis">    0.23    0.24</time>
   <time name="orth">    0.00    0.00</time>
   <time name="total">    0.57    0.58</time>
   <energy>
    <i name="e_fr_energy">   -100.31703958 </i>
    <i name="e_wo_entrp">   -100.31703958 </i>
    <i name="e_0_energy">   -100.31703958 </i>
   </energy>
  </scstep>
  <scstep>
   <time name="diag">    0.08    0.08</time>
   <time name="diis">    0.23    0.23</time>
   <time name="orth">    0.00    0.00</time>
   <time name="total">    0.57    0.58</time>
   <energy>
    <i name="e_fr_energy">   -100.31704583 </i>
    <i name="e_wo_entrp">   -100.31704583 </i>
    <i name="e_0_energy">   -100.31704583 </i>
   </energy>
  </scstep>
  <scstep>
   <time name="diag">    0.08    0.08</time>
   <time name="diis">    0.18    0.18</time>
   <time name="orth">    0.01    0.01</time>
   <time name="total">    0.47    0.48</time>
   <energy>
    <i name="alphaZ">      9.71200593 </i>
    <i name="ewald">   1885.17689859 </i>
    <i name="hartreedc">  -3710.49971549 </i>
    <i name="XCdc">    180.32946386 </i>
    <i name="pawpsdc">   4292.06400247 </i>
    <i name="pawaedc">  -4304.44679293 </i>
    <i name="eentropy">     -0.00000000 </i>
    <i name="bandstr">   -611.63022032 </i>
    <i name="atom">   2158.97731088 </i>
    <i name="e_fr_energy">   -100.31704702 </i>
    <i name="e_wo_entrp">   -100.31704702 </i>
    <i name="e_0_energy">   -100.31704702 </i>
   </energy>
  </scstep>
  <structure>
   <crystal>
    <varray name="basis" >
     <v>       7.75910000       0.00000000       0.00000000 </v>
     <v>       0.00000000      11.73340000       0.00000000 </v>
     <v>       0.00000000       0.00000000      11.31680000 </v>
    </varray>
    <i name="volume">   1030.28853300 </i>
    <varray name="rec_basis" >
     <v>       0.12888093       0.00000000       0.00000000 </v>
     <v>       0.00000000       0.08522679       0.00000000 </v>
     <v>       0.00000000       0.00000000       0.08836420 </v>
    </varray>
   </crystal>
   <varray name="positions" >
    <v>       0.49990717       0.71016879       0.54377414 </v>
    <v>       0.49997499       0.58274260       0.54623056 </v>
    <v>       0.49996280       0.51905095       0.44278463 </v>
    <v>       0.50018354       0.39993364       0.44167886 </v>
    <v>       0.50152633       0.34791168       0.55342459 </v>
    <v>       0.50046224       0.51906092       0.65094916 </v>
    <v>       0.50116023       0.57407645       0.33549771 </v>
    <v>       0.61378451       0.74374997       0.49759256 </v>
    <v>       0.38621554       0.74362741       0.49727249 </v>
    <v>       0.49961999       0.74437828       0.63396831 </v>
    <v>       0.53385043       0.38344489       0.26452106 </v>
    <v>       0.54179241       0.25971901       0.34013736 </v>
    <v>       0.50240963       0.25493686       0.55877943 </v>
    <v>       0.50019818       0.56374612       0.73552651 </v>
    <v>       0.49223321       0.33959615       0.33625353 </v>
    <v>       0.50168882       0.40501486       0.65542608 </v>
   </varray>
  </structure>
  <varray name="forces" >
   <v>      -0.00286604       0.14006779       0.03947190 </v>
   <v>      -0.00751213      -0.09487336      -0.16607439 </v>
   <v>      -0.01042896       0.10026625      -0.03008760 </v>
   <v>      -0.00053412       0.07758282      -0.15065128 </v>
   <v>       0.00518385      -0.03651999       0.11918561 </v>
   <v>      -0.00379238      -0.03979664       0.08600167 </v>
   <v>      -0.00865027      -0.01143917       0.05832116 </v>
   <v>       0.00856650      -0.00297960      -0.00999970 </v>
   <v>      -0.00401297      -0.00270426      -0.00879660 </v>
   <v>       0.00140062       0.01449734       0.01728262 </v>
   <v>      -0.01660670       0.00940709      -0.10049219 </v>
   <v>      -0.02109293      -0.06665812      -0.03262043 </v>
   <v>       0.00153526      -0.11100883       0.01468813 </v>
   <v>       0.00135019       0.04400025       0.08939373 </v>
   <v>       0.05900416      -0.02911441       0.08095769 </v>
   <v>      -0.00154407       0.00927284      -0.00658033 </v>
  </varray>
  <varray name="stress" >
   <v>      -0.22412458      -0.03542512      -0.07865570 </v>
   <v>      -0.03542511       0.92707482       0.14215977 </v>
   <v>      -0.07865570       0.14215976       0.68162755 </v>
  </varray>
  <energy>
   <i name="e_fr_energy">   -100.31704702 </i>
   <i name="e_wo_entrp">   -100.31704702 </i>
   <i name="e_0_energy">   -100.31704702 </i>
  </energy>
  <time name="totalsc">    4.31    4.50</time>
 </calculation>
 <calculation>
  <scstep>
   <time name="diag">    0.05    0.05</time>
   <time name="diis">    0.27    0.28</time>
   <time name="orth">    0.01    0.01</time>
   <time name="total">    0.57    0.58</time>
   <energy>
    <i name="alphaZ">      9.71200593 </i>
    <i name="ewald">   1881.51957610 </i>
    <i name="hartreedc">  -3707.29000142 </i>
    <i name="XCdc">    180.29249986 </i>
    <i name="pawpsdc">   4291.64340635 </i>
    <i name="pawaedc">  -4304.02700053 </i>
    <i name="eentropy">     -0.00000000 </i>
    <i name="bandstr">   -611.14615516 </i>
    <i name="atom">   2158.97731088 </i>
    <i name="e_fr_energy">   -100.31835799 </i>
    <i name="e_wo_entrp">   -100.31835799 </i>
    <i name="e_0_energy">   -100.31835799 </i>
   </energy>
  </scstep>
  <scstep>
   <time name="diag">    0.06    0.06</time>
   <time name="diis">    0.25    0.25</time>
   <time name="orth">    0.00    0.00</time>
   <time name="total">    0.57    0.58</time>
   <energy>
    <i name="e_fr_energy">   -100.31885282 </i>
    <i name="e_wo_entrp">   -100.31885282 </i>
    <i name="e_0_energy">   -100.31885282 </i>
   </energy>
  </scstep>
  <scstep>
   <time name="diag">    0.06    0.06</time>
   <time name="diis">    0.25    0.25</time>
   <time name="orth">    0.00    0.00</time>
   <time name="total">    0.57    0.58</time>
   <energy>
    <i name="e_fr_energy">   -100.31889900 </i>
    <i name="e_wo_entrp">   -100.31889900 </i>
    <i name="e_0_energy">   -100.31889900 </i>
   </energy>
  </scstep>
  <scstep>
   <time name="diag">    0.08    0.08</time>
   <time name="diis">    0.25    0.26</time>
   <time name="orth">    0.00    0.00</time>
   <time name="total">    0.59    0.60</time>
   <energy>
    <i name="e_fr_energy">   -100.31888699 </i>
    <i name="e_wo_entrp">   -100.31888699 </i>
    <i name="e_0_energy">   -100.31888699 </i>
   </energy>
  </scstep>
  <scstep>
   <time name="diag">    0.08    0.08</time>
   <time name="diis">    0.22    0.22</time>
   <time name="orth">    0.00    0.00</time>
   <time name="total">    0.56    0.57</time>
   <energy>
    <i name="e_fr_energy">   -100.31889079 </i>
    <i name="e_wo_entrp">   -100.31889079 </i>
    <i name="e_0_energy">   -100.31889079 </i>
   </energy>
  </scstep>
  <scstep>
   <time name="diag">    0.08    0.08</time>
   <time name="diis">    0.18    0.19</time>
   <time name="orth">    0.01    0.01</time>
   <time name="total">    0.48    0.49</time>
   <energy>
    <i name="alphaZ">      9.71200593 </i>
    <i name="ewald">   1881.51957610 </i>
    <i name="hartreedc">  -3707.01270345 </i>
    <i name="XCdc">    180.28109572 </i>
    <i name="pawpsdc">   4283.00112413 </i>
    <i name="pawaedc">  -4295.38257464 </i>
    <i name="eentropy">     -0.00000000 </i>
    <i name="bandstr">   -611.41472808 </i>
    <i name="atom">   2158.97731088 </i>
    <i name="e_fr_energy">   -100.31889340 </i>
    <i name="e_wo_entrp">   -100.31889340 </i>
    <i name="e_0_energy">   -100.31889340 </i>
   </energy>
  </scstep>
  <structure>
   <crystal>
    <varray name="basis" >
     <v>       7.75910000       0.00000000       0.00000000 </v>
     <v>       0.00000000      11.73340000       0.00000000 </v>
     <v>       0.00000000       0.00000000      11.31680000 </v>
    </varray>
    <i name="volume">   1030.28853300 </i>
    <varray name="rec_basis" >
     <v>       0.12888093       0.00000000       0.00000000 </v>
     <v>       0.00000000       0.08522679       0.00000000 </v>
     <v>       0.00000000       0.00000000       0.08836420 </v>
    </varray>
   </crystal>
   <varray name="positions" >
    <v>       0.49990174       0.71046007       0.54384680 </v>
    <v>       0.49995723       0.58265829       0.54605089 </v>
    <v>       0.49991999       0.51929333       0.44261804 </v>
    <v>       0.50018578       0.40000495       0.44147945 </v>
    <v>       0.50153310       0.34775447       0.55366923 </v>
    <v>       0.50045170       0.51902065       0.65118529 </v>
    <v>       0.50112531       0.57416491       0.33541090 </v>
    <v>       0.61386538       0.74374986       0.49754528 </v>
    <v>       0.38614880       0.74362847       0.49722759 </v>
    <v>       0.49962420       0.74440560       0.63406034 </v>
    <v>       0.53375641       0.38346547       0.26427996 </v>
    <v>       0.54170414       0.25954506       0.34008474 </v>
    <v>       0.50241511       0.25461648       0.55880927 </v>
    <v>       0.50020180       0.56388558       0.73578958 </v>
    <v>       0.49249107       0.33950025       0.33627990 </v>
    <v>       0.50168827       0.40500513       0.65547972 </v>
   </varray>
  </structure>
  <varray name="forces" >
   <v>      -0.00094651      -0.01377769       0.00030200 </v>
   <v>      -0.00562132       0.03111799       0.05036568 </v>
   <v>      -0.00750500      -0.07895348      -0.04057733 </v>
   <v>       0.00727291       0.03225689       0.05411475 </v>
   <v>      -0.00257281       0.02117549      -0.10047905 </v>
   <v>      -0.00241858       0.02361387      -0.04612851 </v>
   <v>      -0.00773144       0.01400489       0.02623800 </v>
   <v>       0.00401121       0.01421183      -0.00330428 </v>
   <v>      -0.00327308       0.01667436      -0.00410383 </v>
   <v>       0.00116846       0.03098001       0.03285596 </v>
   <v>      -0.04606978      -0.04857398      -0.02781475 </v>
   <v>      -0.01548675      -0.06406735      -0.02847335 </v>
   <v>       0.00202198      -0.04738845       0.02069953 </v>
   <v>       0.00140492       0.02022863       0.04624941 </v>
   <v>       0.07811265       0.05046087      -0.02478224 </v>
   <v>      -0.00236686      -0.00196387       0.04483802 </v>
  </varray>
  <varray name="stress" >
   <v>      -0.24011962      -0.07156024      -0.03058294 </v>
   <v>      -0.07156023       0.26293544       0.48851940 </v>
   <v>      -0.03058293       0.48851940       0.14811988 </v>
  </varray>
  <energy>
   <i name="e_fr_energy">   -100.31889340 </i>
   <i name="e_wo_entrp">   -100.31889340 </i>
   <i name="e_0_energy">   -100.31889340 </i>
  </energy>
  <time name="totalsc">    4.36    4.48</time>
 </calculation>
 <calculation>
  <scstep>
   <time name="diag">    0.07    0.07</time>
   <time name="diis">    0.28    0.28</time>
   <time name="orth">    0.00    0.00</time>
   <time name="total">    0.59    0.60</time>
   <energy>
    <i name="alphaZ">      9.71200593 </i>
    <i name="ewald">   1881.60641753 </i>
    <i name="hartreedc">  -3707.08762977 </i>
    <i name="XCdc">    180.28221266 </i>
    <i name="pawpsdc">   4282.61296483 </i>
    <i name="pawaedc">  -4294.99486245 </i>
    <i name="eentropy">     -0.00000000 </i>
    <i name="bandstr">   -611.42731555 </i>
    <i name="atom">   2158.97731088 </i>
    <i name="e_fr_energy">   -100.31889594 </i>
    <i name="e_wo_entrp">   -100.31889594 </i>
    <i name="e_0_energy">   -100.31889594 </i>
   </energy>
  </scstep>
  <scstep>
   <time name="diag">    0.07    0.07</time>
   <time name="diis">    0.20    0.20</time>
   <time name="orth">    0.01    0.01</time>
   <time name="total">    0.50    0.50</time>
   <energy>
    <i name="e_fr_energy">   -100.31889764 </i>
    <i name="e_wo_entrp">   -100.31889764 </i>
    <i name="e_0_energy">   -100.31889764 </i>
   </energy>
  </scstep>
  <scstep>
   <time name="diag">    0.06    0.06</time>
   <time name="diis">    0.16    0.16</time>
   <time name="orth">    0.01    0.01</time>
   <time name="total">    0.48    0.49</time>
   <energy>
    <i name="e_fr_energy">   -100.31889959 </i>
    <i name="e_wo_entrp">   -100.31889959 </i>
    <i name="e_0_energy">   -100.31889959 </i>
   </energy>
  </scstep>
  <scstep>
   <time name="diag">    0.08    0.08</time>
   <time name="diis">    0.13    0.13</time>
   <time name="orth">    0.00    0.00</time>
   <time name="total">    0.46    0.47</time>
   <energy>
    <i name="e_fr_energy">   -100.31890089 </i>
    <i name="e_wo_entrp">   -100.31890089 </i>
    <i name="e_0_energy">   -100.31890089 </i>
   </energy>
  </scstep>
  <scstep>
   <time name="diag">    0.07    0.07</time>
   <time name="diis">    0.16    0.16</time>
   <time name="orth">    0.01    0.01</time>
   <time name="total">    0.46    0.47</time>
   <energy>
    <i name="e_fr_energy">   -100.31890216 </i>
    <i name="e_wo_entrp">   -100.31890216 </i>
    <i name="e_0_energy">   -100.31890216 </i>
   </energy>
  </scstep>
  <scstep>
   <time name="diag">    0.05    0.05</time>
   <time name="diis">    0.15    0.16</time>
   <time name="orth">    0.00    0.00</time>
   <time name="total">    0.40    0.40</time>
   <energy>
    <i name="alphaZ">      9.71200593 </i>
    <i name="ewald">   1881.60641753 </i>
    <i name="hartreedc">  -3707.09397318 </i>
    <i name="XCdc">    180.28242835 </i>
    <i name="pawpsdc">   4282.71850695 </i>
    <i name="pawaedc">  -4295.10050553 </i>
    <i name="eentropy">     -0.00000000 </i>
    <i name="bandstr">   -611.42109475 </i>
    <i name="atom">   2158.97731088 </i>
    <i name="e_fr_energy">   -100.31890383 </i>
    <i name="e_wo_entrp">   -100.31890383 </i>
    <i name="e_0_energy">   -100.31890383 </i>
   </energy>
  </scstep>
  <structure>
   <crystal>
    <varray name="basis" >
     <v>       7.75910000       0.00000000       0.00000000 </v>
     <v>       0.00000000      11.73340000       0.00000000 </v>
     <v>       0.00000000       0.00000000      11.31680000 </v>
    </varray>
    <i name="volume">   1030.28853300 </i>
    <varray name="rec_basis" >
     <v>       0.12888093       0.00000000       0.00000000 </v>
     <v>       0.00000000       0.08522679       0.00000000 </v>
     <v>       0.00000000       0.00000000       0.08836420 </v>
    </varray>
   </crystal>
   <varray name="positions" >
    <v>       0.49990187       0.71045314       0.54384508 </v>
    <v>       0.49995766       0.58266029       0.54605517 </v>
    <v>       0.49992101       0.51928756       0.44262200 </v>
    <v>       0.50018573       0.40000325       0.44148420 </v>
    <v>       0.50153294       0.34775821       0.55366341 </v>
    <v>       0.50045195       0.51902161       0.65117967 </v>
    <v>       0.50112614       0.57416280       0.33541297 </v>
    <v>       0.61386345       0.74374986       0.49754640 </v>
    <v>       0.38615039       0.74362845       0.49722866 </v>
    <v>       0.49962410       0.74440495       0.63405815 </v>
    <v>       0.53375865       0.38346498       0.26428570 </v>
    <v>       0.54170624       0.25954920       0.34008600 </v>
    <v>       0.50241498       0.25462410       0.55880856 </v>
    <v>       0.50020171       0.56388226       0.73578332 </v>
    <v>       0.49248494       0.33950253       0.33627927 </v>
    <v>       0.50168828       0.40500536       0.65547844 </v>
   </varray>
  </structure>
  <varray name="forces" >
   <v>       0.00062181      -0.01042788       0.00555102 </v>
   <v>      -0.00585385       0.02738590       0.04466948 </v>
   <v>      -0.00781327      -0.07356432      -0.04149118 </v>
   <v>       0.00686439       0.03400401       0.04808310 </v>
   <v>      -0.00271914       0.01973374      -0.09494403 </v>
   <v>      -0.00113478       0.02300021      -0.03967615 </v>
   <v>      -0.00823338       0.01470942       0.02530801 </v>
   <v>       0.00403757       0.01355596      -0.00394378 </v>
   <v>      -0.00358071       0.01598370      -0.00468205 </v>
   <v>       0.00098349       0.03041597       0.03226190 </v>
   <v>      -0.04558687      -0.04739753      -0.03013584 </v>
   <v>      -0.01584196      -0.06461574      -0.02900114 </v>
   <v>       0.00183449      -0.04945056       0.02016369 </v>
   <v>       0.00122752       0.02080998       0.04695966 </v>
   <v>       0.07774883       0.04804626      -0.02318151 </v>
   <v>      -0.00255412      -0.00218912       0.04405883 </v>
  </varray>
  <varray name="stress" >
   <v>      -0.24276567      -0.07047799      -0.03315159 </v>
   <v>      -0.07047799       0.27590400       0.48348582 </v>
   <v>      -0.03315160       0.48348581       0.15343543 </v>
  </varray>
  <energy>
   <i name="e_fr_energy">   -100.31890383 </i>
   <i name="e_wo_entrp">   -100.31890383 </i>
   <i name="e_0_energy">   -100.31890383 </i>
  </energy>
  <time name="totalsc">    3.96    4.10</time>
 </calculation>
 <calculation>
  <scstep>
   <time name="diag">    0.07    0.07</time>
   <time name="diis">    0.24    0.24</time>
   <time name="orth">    0.00    0.00</time>
   <time name="total">    0.55    0.56</time>
   <energy>
    <i name="alphaZ">      9.71200593 </i>
    <i name="ewald">   1880.02437502 </i>
    <i name="hartreedc">  -3705.80014779 </i>
    <i name="XCdc">    180.26055744 </i>
    <i name="pawpsdc">   4282.71587595 </i>
    <i name="pawaedc">  -4295.09787359 </i>
    <i name="eentropy">     -0.00000000 </i>
    <i name="bandstr">   -611.11141018 </i>
    <i name="atom">   2158.97731088 </i>
    <i name="e_fr_energy">   -100.31930632 </i>
    <i name="e_wo_entrp">   -100.31930632 </i>
    <i name="e_0_energy">   -100.31930632 </i>
   </energy>
  </scstep>
  <scstep>
   <time name="diag">    0.07    0.07</time>
   <time name="diis">    0.21    0.21</time>
   <time name="orth">    0.00    0.00</time>
   <time name="total">    0.50    0.50</time>
   <energy>
    <i name="e_fr_energy">   -100.31946833 </i>
    <i name="e_wo_entrp">   -100.31946833 </i>
    <i name="e_0_energy">   -100.31946833 </i>
   </energy>
  </scstep>
  <scstep>
   <time name="diag">    0.07    0.07</time>
   <time name="diis">    0.29    0.30</time>
   <time name="orth">    0.00    0.00</time>
   <time name="total">    0.59    0.60</time>
   <energy>
    <i name="e_fr_energy">   -100.31948650 </i>
    <i name="e_wo_entrp">   -100.31948650 </i>
    <i name="e_0_energy">   -100.31948650 </i>
   </energy>
  </scstep>
  <scstep>
   <time name="diag">    0.07    0.07</time>
   <time name="diis">    0.28    0.28</time>
   <time name="orth">    0.00    0.00</time>
   <time name="total">    0.59    0.60</time>
   <energy>
[...]
        <r>  0.0000  0.0000  0.0000  0.0000  0.0000  0.0000  0.0000  0.0000  0.0000 </r>
        <r>  0.0032  0.0000  0.0006  0.0033  0.0000  0.0000  0.0000  0.0000  0.0000 </r>
        <r>  0.0039  0.0009  0.0000  0.0029  0.0000  0.0000  0.0000  0.0000  0.0000 </r>
        <r>  0.0000  0.0000  0.0000  0.0011  0.0000  0.0000  0.0000  0.0000  0.0000 </r>
        <r>  0.0000  0.0000  0.0000  0.0016  0.0000  0.0000  0.0000  0.0000  0.0000 </r>
        <r>  0.0094  0.0028  0.0042  0.2004  0.0000  0.0000  0.0000  0.0000  0.0000 </r>
        <r>  0.0001  0.0001  0.0006  0.0106  0.0000  0.0000  0.0000  0.0000  0.0000 </r>
       </set>
       <set comment="band 25">
        <r>  0.0000  0.0000  0.0000  0.0000  0.0000  0.0000  0.0000  0.0000  0.0000 </r>
        <r>  0.0000  0.0000  0.0000  0.0783  0.0000  0.0000  0.0000  0.0000  0.0000 </r>
        <r>  0.0000  0.0000  0.0000  0.1289  0.0000  0.0000  0.0000  0.0000  0.0000 </r>
        <r>  0.0000  0.0000  0.0000  0.0000  0.0000  0.0000  0.0000  0.0000  0.0000 </r>
        <r>  0.0000  0.0001  0.0000  0.1160  0.0000  0.0000  0.0000  0.0000  0.0000 </r>
        <r>  0.0000  0.0000  0.0000  0.0053  0.0000  0.0000  0.0000  0.0000  0.0000 </r>
        <r>  0.0000  0.0000  0.0000  0.0274  0.0000  0.0000  0.0000  0.0000  0.0000 </r>
        <r>  0.0062  0.0001  0.0000  0.0000  0.0000  0.0000  0.0000  0.0000  0.0000 </r>
        <r>  0.0061  0.0001  0.0000  0.0000  0.0000  0.0000  0.0000  0.0000  0.0000 </r>
        <r>  0.0000  0.0000  0.0000  0.0000  0.0000  0.0000  0.0000  0.0000  0.0000 </r>
        <r>  0.0001  0.0000  0.0000  0.0001  0.0000  0.0000  0.0000  0.0000  0.0000 </r>
        <r>  0.0001  0.0001  0.0000  0.0001  0.0000  0.0000  0.0000  0.0000  0.0000 </r>
        <r>  0.0000  0.0000  0.0000  0.0038  0.0000  0.0000  0.0000  0.0000  0.0000 </r>
        <r>  0.0000  0.0000  0.0000  0.0002  0.0000  0.0000  0.0000  0.0000  0.0000 </r>
        <r>  0.0000  0.0003  0.0001  0.0006  0.0000  0.0000  0.0000  0.0000  0.0000 </r>
        <r>  0.0000  0.0000  0.0000  0.1508  0.0000  0.0000  0.0000  0.0000  0.0000 </r>
       </set>
       <set comment="band 26">
        <r>  0.0071  0.0004  0.0001  0.0001  0.0000  0.0000  0.0000  0.0000  0.0000 </r>
        <r>  0.0000  0.0004  0.0000  0.0156  0.0000  0.0000  0.0000  0.0000  0.0000 </r>
        <r>  0.0000  0.0019  0.0034  0.0081  0.0000  0.0000  0.0000  0.0000  0.0000 </r>
        <r>  0.0000  0.0010  0.0009  0.0453  0.0000  0.0000  0.0000  0.0000  0.0000 </r>
        <r>  0.0013  0.0019  0.0001  0.0054  0.0000  0.0000  0.0000  0.0000  0.0000 </r>
        <r>  0.0005  0.0000  0.0008  0.0415  0.0000  0.0000  0.0000  0.0000  0.0000 </r>
        <r>  0.0033  0.0007  0.0004  0.0021  0.0000  0.0000  0.0000  0.0000  0.0000 </r>
        <r>  0.0007  0.0000  0.0002  0.0006  0.0000  0.0000  0.0000  0.0000  0.0000 </r>
        <r>  0.0006  0.0002  0.0001  0.0005  0.0000  0.0000  0.0000  0.0000  0.0000 </r>
        <r>  0.0000  0.0000  0.0004  0.0000  0.0000  0.0000  0.0000  0.0000  0.0000 </r>
        <r>  0.0021  0.0007  0.0010  0.0008  0.0000  0.0000  0.0000  0.0000  0.0000 </r>
        <r>  0.0029  0.0023  0.0000  0.0013  0.0000  0.0000  0.0000  0.0000  0.0000 </r>
        <r>  0.0008  0.0006  0.0001  0.0003  0.0000  0.0000  0.0000  0.0000  0.0000 </r>
        <r>  0.0002  0.0001  0.0001  0.0014  0.0000  0.0000  0.0000  0.0000  0.0000 </r>
        <r>  0.0206  0.0023  0.0025  0.0027  0.0000  0.0000  0.0000  0.0000  0.0000 </r>
        <r>  0.0001  0.0000  0.0006  0.0124  0.0000  0.0000  0.0000  0.0000  0.0000 </r>
       </set>
       <set comment="band 27">
        <r>  0.0040  0.0003  0.0001  0.0001  0.0000  0.0000  0.0000  0.0000  0.0000 </r>
        <r>  0.0000  0.0003  0.0000  0.0541  0.0000  0.0000  0.0000  0.0000  0.0000 </r>
        <r>  0.0000  0.0007  0.0018  0.0100  0.0000  0.0000  0.0000  0.0000  0.0000 </r>
        <r>  0.0000  0.0003  0.0003  0.1055  0.0000  0.0000  0.0000  0.0000  0.0000 </r>
        <r>  0.0005  0.0005  0.0000  0.0221  0.0000  0.0000  0.0000  0.0000  0.0000 </r>
        <r>  0.0002  0.0000  0.0004  0.1029  0.0000  0.0000  0.0000  0.0000  0.0000 </r>
        <r>  0.0014  0.0002  0.0003  0.0020  0.0000  0.0000  0.0000  0.0000  0.0000 </r>
        <r>  0.0024  0.0002  0.0000  0.0003  0.0000  0.0000  0.0000  0.0000  0.0000 </r>
        <r>  0.0024  0.0000  0.0002  0.0003  0.0000  0.0000  0.0000  0.0000  0.0000 </r>
        <r>  0.0000  0.0000  0.0003  0.0001  0.0000  0.0000  0.0000  0.0000  0.0000 </r>
        <r>  0.0006  0.0003  0.0007  0.0003  0.0000  0.0000  0.0000  0.0000  0.0000 </r>
        <r>  0.0011  0.0011  0.0000  0.0004  0.0000  0.0000  0.0000  0.0000  0.0000 </r>
        <r>  0.0003  0.0002  0.0000  0.0008  0.0000  0.0000  0.0000  0.0000  0.0000 </r>
        <r>  0.0001  0.0001  0.0000  0.0034  0.0000  0.0000  0.0000  0.0000  0.0000 </r>
        <r>  0.0006  0.0003  0.0001  0.0284  0.0000  0.0000  0.0000  0.0000  0.0000 </r>
        <r>  0.0000  0.0000  0.0003  0.0230  0.0000  0.0000  0.0000  0.0000  0.0000 </r>
       </set>
       <set comment="band 28">
        <r>  0.0144  0.0075  0.0003  0.0000  0.0000  0.0000  0.0000  0.0000  0.0000 </r>
        <r>  0.0000  0.0005  0.0001  0.0012  0.0000  0.0000  0.0000  0.0000  0.0000 </r>
        <r>  0.0004  0.0015  0.0000  0.0000  0.0000  0.0000  0.0000  0.0000  0.0000 </r>
        <r>  0.0004  0.0008  0.0018  0.0003  0.0000  0.0000  0.0000  0.0000  0.0000 </r>
        <r>  0.0001  0.0002  0.0002  0.0002  0.0000  0.0000  0.0000  0.0000  0.0000 </r>
        <r>  0.0027  0.0017  0.0010  0.0011  0.0000  0.0000  0.0000  0.0000  0.0000 </r>
        <r>  0.0003  0.0025  0.0000  0.0001  0.0000  0.0000  0.0000  0.0000  0.0000 </r>
        <r>  0.0000  0.0000  0.0003  0.0015  0.0000  0.0000  0.0000  0.0000  0.0000 </r>
        <r>  0.0004  0.0000  0.0003  0.0016  0.0000  0.0000  0.0000  0.0000  0.0000 </r>
        <r>  0.0002  0.0001  0.0025  0.0000  0.0000  0.0000  0.0000  0.0000  0.0000 </r>
        <r>  0.0009  0.0012  0.0027  0.0002  0.0000  0.0000  0.0000  0.0000  0.0000 </r>
        <r>  0.0007  0.0046  0.0000  0.0005  0.0000  0.0000  0.0000  0.0000  0.0000 </r>
        <r>  0.0008  0.0000  0.0001  0.0000  0.0000  0.0000  0.0000  0.0000  0.0000 </r>
        <r>  0.0003  0.0003  0.0006  0.0000  0.0000  0.0000  0.0000  0.0000  0.0000 </r>
        <r>  0.0198  0.0017  0.0027  0.0050  0.0000  0.0000  0.0000  0.0000  0.0000 </r>
        <r>  0.0001  0.0006  0.0006  0.0003  0.0000  0.0000  0.0000  0.0000  0.0000 </r>
       </set>
       <set comment="band 29">
        <r>  0.0011  0.0010  0.0012  0.0000  0.0000  0.0000  0.0000  0.0000  0.0000 </r>
        <r>  0.0018  0.0000  0.0009  0.0002  0.0000  0.0000  0.0000  0.0000  0.0000 </r>
        <r>  0.0046  0.0011  0.0118  0.0001  0.0000  0.0000  0.0000  0.0000  0.0000 </r>
        <r>  0.0006  0.0018  0.0008  0.0001  0.0000  0.0000  0.0000  0.0000  0.0000 </r>
        <r>  0.0045  0.0114  0.0000  0.0001  0.0000  0.0000  0.0000  0.0000  0.0000 </r>
        <r>  0.0004  0.0000  0.0005  0.0001  0.0000  0.0000  0.0000  0.0000  0.0000 </r>
        <r>  0.0099  0.0027  0.0041  0.0000  0.0000  0.0000  0.0000  0.0000  0.0000 </r>
        <r>  0.0000  0.0000  0.0000  0.0002  0.0000  0.0000  0.0000  0.0000  0.0000 </r>
        <r>  0.0002  0.0000  0.0000  0.0002  0.0000  0.0000  0.0000  0.0000  0.0000 </r>
        <r>  0.0005  0.0001  0.0000  0.0000  0.0000  0.0000  0.0000  0.0000  0.0000 </r>
        <r>  0.0001  0.0002  0.0016  0.0003  0.0000  0.0000  0.0000  0.0000  0.0000 </r>
        <r>  0.0000  0.0015  0.0000  0.0003  0.0000  0.0000  0.0000  0.0000  0.0000 </r>
        <r>  0.0005  0.0035  0.0000  0.0000  0.0000  0.0000  0.0000  0.0000  0.0000 </r>
        <r>  0.0012  0.0000  0.0000  0.0000  0.0000  0.0000  0.0000  0.0000  0.0000 </r>
        <r>  0.0010  0.0171  0.0003  0.0000  0.0000  0.0000  0.0000  0.0000  0.0000 </r>
        <r>  0.0000  0.0001  0.0000  0.0000  0.0000  0.0000  0.0000  0.0000  0.0000 </r>
       </set>
       <set comment="band 30">
        <r>  0.0077  0.0004  0.0082  0.0000  0.0000  0.0000  0.0000  0.0000  0.0000 </r>
        <r>  0.0002  0.0020  0.0000  0.0000  0.0000  0.0000  0.0000  0.0000  0.0000 </r>
        <r>  0.0030  0.0033  0.0029  0.0000  0.0000  0.0000  0.0000  0.0000  0.0000 </r>
        <r>  0.0000  0.0003  0.0000  0.0000  0.0000  0.0000  0.0000  0.0000  0.0000 </r>
        <r>  0.0010  0.0000  0.0003  0.0000  0.0000  0.0000  0.0000  0.0000  0.0000 </r>
        <r>  0.0035  0.0036  0.0078  0.0000  0.0000  0.0000  0.0000  0.0000  0.0000 </r>
        <r>  0.0025  0.0003  0.0067  0.0000  0.0000  0.0000  0.0000  0.0000  0.0000 </r>
        <r>  0.0000  0.0005  0.0001  0.0010  0.0000  0.0000  0.0000  0.0000  0.0000 </r>
        <r>  0.0000  0.0005  0.0001  0.0010  0.0000  0.0000  0.0000  0.0000  0.0000 </r>
        <r>  0.0001  0.0000  0.0001  0.0000  0.0000  0.0000  0.0000  0.0000  0.0000 </r>
        <r>  0.0000  0.0000  0.0002  0.0001  0.0000  0.0000  0.0000  0.0000  0.0000 </r>
        <r>  0.0003  0.0004  0.0000  0.0000  0.0000  0.0000  0.0000  0.0000  0.0000 </r>
        <r>  0.0006  0.0000  0.0001  0.0000  0.0000  0.0000  0.0000  0.0000  0.0000 </r>
        <r>  0.0003  0.0003  0.0028  0.0000  0.0000  0.0000  0.0000  0.0000  0.0000 </r>
        <r>  0.0005  0.0006  0.0028  0.0001  0.0000  0.0000  0.0000  0.0000  0.0000 </r>
        <r>  0.0028  0.0001  0.0003  0.0000  0.0000  0.0000  0.0000  0.0000  0.0000 </r>
       </set>
       <set comment="band 31">
        <r>  0.0007  0.0003  0.0009  0.0000  0.0000  0.0000  0.0000  0.0000  0.0000 </r>
        <r>  0.0022  0.0000  0.0001  0.0000  0.0000  0.0000  0.0000  0.0000  0.0000 </r>
        <r>  0.0020  0.0001  0.0005  0.0000  0.0000  0.0000  0.0000  0.0000  0.0000 </r>
        <r>  0.0022  0.0001  0.0001  0.0001  0.0000  0.0000  0.0000  0.0000  0.0000 </r>
        <r>  0.0025  0.0026  0.0003  0.0001  0.0000  0.0000  0.0000  0.0000  0.0000 </r>
        <r>  0.0002  0.0000  0.0009  0.0000  0.0000  0.0000  0.0000  0.0000  0.0000 </r>
        <r>  0.0005  0.0000  0.0000  0.0000  0.0000  0.0000  0.0000  0.0000  0.0000 </r>
        <r>  0.0001  0.0001  0.0001  0.0000  0.0000  0.0000  0.0000  0.0000  0.0000 </r>
        <r>  0.0001  0.0001  0.0002  0.0000  0.0000  0.0000  0.0000  0.0000  0.0000 </r>
        <r>  0.0002  0.0001  0.0004  0.0000  0.0000  0.0000  0.0000  0.0000  0.0000 </r>
        <r>  0.0002  0.0000  0.0005  0.0000  0.0000  0.0000  0.0000  0.0000  0.0000 </r>
        <r>  0.0001  0.0000  0.0000  0.0001  0.0000  0.0000  0.0000  0.0000  0.0000 </r>
        <r>  0.0003  0.0008  0.0001  0.0000  0.0000  0.0000  0.0000  0.0000  0.0000 </r>
        <r>  0.0001  0.0001  0.0000  0.0000  0.0000  0.0000  0.0000  0.0000  0.0000 </r>
        <r>  0.0004  0.0004  0.0004  0.0000  0.0000  0.0000  0.0000  0.0000  0.0000 </r>
        <r>  0.0032  0.0000  0.0000  0.0000  0.0000  0.0000  0.0000  0.0000  0.0000 </r>
       </set>
       <set comment="band 32">
        <r>  0.0033  0.0000  0.0168  0.0014  0.0000  0.0000  0.0000  0.0000  0.0000 </r>
        <r>  0.0002  0.0000  0.0000  0.0026  0.0000  0.0000  0.0000  0.0000  0.0000 </r>
        <r>  0.0000  0.0002  0.0026  0.0012  0.0000  0.0000  0.0000  0.0000  0.0000 </r>
        <r>  0.0004  0.0001  0.0009  0.0013  0.0000  0.0000  0.0000  0.0000  0.0000 </r>
        <r>  0.0005  0.0000  0.0011  0.0000  0.0000  0.0000  0.0000  0.0000  0.0000 </r>
        <r>  0.0013  0.0000  0.0065  0.0011  0.0000  0.0000  0.0000  0.0000  0.0000 </r>
        <r>  0.0003  0.0025  0.0010  0.0008  0.0000  0.0000  0.0000  0.0000  0.0000 </r>
        <r>  0.0003  0.0000  0.0001  0.0000  0.0000  0.0000  0.0000  0.0000  0.0000 </r>
        <r>  0.0000  0.0002  0.0000  0.0003  0.0000  0.0000  0.0000  0.0000  0.0000 </r>
        <r>  0.0000  0.0007  0.0034  0.0000  0.0000  0.0000  0.0000  0.0000  0.0000 </r>
        <r>  0.0016  0.0006  0.0007  0.0000  0.0000  0.0000  0.0000  0.0000  0.0000 </r>
        <r>  0.0029  0.0046  0.0001  0.0005  0.0000  0.0000  0.0000  0.0000  0.0000 </r>
        <r>  0.0002  0.0001  0.0006  0.0001  0.0000  0.0000  0.0000  0.0000  0.0000 </r>
        <r>  0.0000  0.0012  0.0006  0.0001  0.0000  0.0000  0.0000  0.0000  0.0000 </r>
        <r>  0.0133  0.0023  0.0001  0.0060  0.0000  0.0000  0.0000  0.0000  0.0000 </r>
        <r>  0.0054  0.0005  0.0003  0.0019  0.0000  0.0000  0.0000  0.0000  0.0000 </r>
       </set>
       <set comment="band 33">
        <r>  0.0010  0.0011  0.0009  0.0003  0.0000  0.0000  0.0000  0.0000  0.0000 </r>
        <r>  0.0001  0.0043  0.0003  0.0004  0.0000  0.0000  0.0000  0.0000  0.0000 </r>
        <r>  0.0049  0.0032  0.0113  0.0005  0.0000  0.0000  0.0000  0.0000  0.0000 </r>
        <r>  0.0001  0.0006  0.0003  0.0002  0.0000  0.0000  0.0000  0.0000  0.0000 </r>
        <r>  0.0011  0.0041  0.0001  0.0000  0.0000  0.0000  0.0000  0.0000  0.0000 </r>
        <r>  0.0051  0.0032  0.0004  0.0002  0.0000  0.0000  0.0000  0.0000  0.0000 </r>
        <r>  0.0075  0.0034  0.0043  0.0000  0.0000  0.0000  0.0000  0.0000  0.0000 </r>
        <r>  0.0007  0.0001  0.0000  0.0002  0.0000  0.0000  0.0000  0.0000  0.0000 </r>
        <r>  0.0003  0.0002  0.0001  0.0000  0.0000  0.0000  0.0000  0.0000  0.0000 </r>
        <r>  0.0002  0.0007  0.0000  0.0000  0.0000  0.0000  0.0000  0.0000  0.0000 </r>
        <r>  0.0013  0.0005  0.0020  0.0003  0.0000  0.0000  0.0000  0.0000  0.0000 </r>
        <r>  0.0001  0.0017  0.0002  0.0007  0.0000  0.0000  0.0000  0.0000  0.0000 </r>
        <r>  0.0002  0.0012  0.0000  0.0000  0.0000  0.0000  0.0000  0.0000  0.0000 </r>
        <r>  0.0002  0.0001  0.0013  0.0000  0.0000  0.0000  0.0000  0.0000  0.0000 </r>
        <r>  0.0006  0.0171  0.0013  0.0000  0.0000  0.0000  0.0000  0.0000  0.0000 </r>
        <r>  0.0002  0.0001  0.0014  0.0001  0.0000  0.0000  0.0000  0.0000  0.0000 </r>
       </set>
       <set comment="band 34">
        <r>  0.0026  0.0008  0.0031  0.0002  0.0000  0.0000  0.0000  0.0000  0.0000 </r>
        <r>  0.0000  0.0007  0.0005  0.0003  0.0000  0.0000  0.0000  0.0000  0.0000 </r>
        <r>  0.0008  0.0007  0.0036  0.0002  0.0000  0.0000  0.0000  0.0000  0.0000 </r>
        <r>  0.0010  0.0005  0.0027  0.0002  0.0000  0.0000  0.0000  0.0000  0.0000 </r>
        <r>  0.0048  0.0086  0.0000  0.0000  0.0000  0.0000  0.0000  0.0000  0.0000 </r>
        <r>  0.0047  0.0003  0.0016  0.0001  0.0000  0.0000  0.0000  0.0000  0.0000 </r>
        <r>  0.0000  0.0022  0.0088  0.0001  0.0000  0.0000  0.0000  0.0000  0.0000 </r>
        <r>  0.0000  0.0000  0.0001  0.0000  0.0000  0.0000  0.0000  0.0000  0.0000 </r>
        <r>  0.0001  0.0000  0.0000  0.0000  0.0000  0.0000  0.0000  0.0000  0.0000 </r>
        <r>  0.0000  0.0006  0.0005  0.0000  0.0000  0.0000  0.0000  0.0000  0.0000 </r>
        <r>  0.0006  0.0003  0.0002  0.0000  0.0000  0.0000  0.0000  0.0000  0.0000 </r>
        <r>  0.0001  0.0000  0.0008  0.0000  0.0000  0.0000  0.0000  0.0000  0.0000 </r>
        <r>  0.0012  0.0031  0.0000  0.0000  0.0000  0.0000  0.0000  0.0000  0.0000 </r>
        <r>  0.0012  0.0001  0.0013  0.0000  0.0000  0.0000  0.0000  0.0000  0.0000 </r>
        <r>  0.0012  0.0017  0.0010  0.0000  0.0000  0.0000  0.0000  0.0000  0.0000 </r>
        <r>  0.0000  0.0001  0.0000  0.0003  0.0000  0.0000  0.0000  0.0000  0.0000 </r>
       </set>
       <set comment="band 35">
        <r>  0.0001  0.0007  0.0040  0.0214  0.0000  0.0000  0.0000  0.0000  0.0000 </r>
        <r>  0.0000  0.0000  0.0000  0.0093  0.0000  0.0000  0.0000  0.0000  0.0000 </r>
        <r>  0.0000  0.0008  0.0024  0.0054  0.0000  0.0000  0.0000  0.0000  0.0000 </r>
        <r>  0.0001  0.0000  0.0002  0.0181  0.0000  0.0000  0.0000  0.0000  0.0000 </r>
        <r>  0.0002  0.0000  0.0006  0.0018  0.0000  0.0000  0.0000  0.0000  0.0000 </r>
        <r>  0.0001  0.0002  0.0020  0.0022  0.0000  0.0000  0.0000  0.0000  0.0000 </r>
        <r>  0.0006  0.0004  0.0014  0.0063  0.0000  0.0000  0.0000  0.0000  0.0000 </r>
        <r>  0.0006  0.0010  0.0006  0.0027  0.0000  0.0000  0.0000  0.0000  0.0000 </r>
        <r>  0.0001  0.0003  0.0008  0.0001  0.0000  0.0000  0.0000  0.0000  0.0000 </r>
        <r>  0.0004  0.0001  0.0003  0.0001  0.0000  0.0000  0.0000  0.0000  0.0000 </r>
        <r>  0.0001  0.0000  0.0005  0.0002  0.0000  0.0000  0.0000  0.0000  0.0000 </r>
        <r>  0.0000  0.0002  0.0000  0.0000  0.0000  0.0000  0.0000  0.0000  0.0000 </r>
        <r>  0.0004  0.0000  0.0002  0.0007  0.0000  0.0000  0.0000  0.0000  0.0000 </r>
        <r>  0.0000  0.0003  0.0001  0.0005  0.0000  0.0000  0.0000  0.0000  0.0000 </r>
        <r>  0.0008  0.0007  0.0030  0.0018  0.0000  0.0000  0.0000  0.0000  0.0000 </r>
        <r>  0.0009  0.0002  0.0003  0.0147  0.0000  0.0000  0.0000  0.0000  0.0000 </r>
       </set>
       <set comment="band 36">
        <r>  0.0020  0.0042  0.0031  0.0045  0.0000  0.0000  0.0000  0.0000  0.0000 </r>
        <r>  0.0004  0.0001  0.0000  0.0011  0.0000  0.0000  0.0000  0.0000  0.0000 </r>
        <r>  0.0008  0.0040  0.0076  0.0012  0.0000  0.0000  0.0000  0.0000  0.0000 </r>
        <r>  0.0010  0.0000  0.0000  0.0034  0.0000  0.0000  0.0000  0.0000  0.0000 </r>
        <r>  0.0001  0.0002  0.0010  0.0000  0.0000  0.0000  0.0000  0.0000  0.0000 </r>
        <r>  0.0020  0.0015  0.0001  0.0002  0.0000  0.0000  0.0000  0.0000  0.0000 </r>
        <r>  0.0032  0.0001  0.0059  0.0007  0.0000  0.0000  0.0000  0.0000  0.0000 </r>
        <r>  0.0002  0.0000  0.0002  0.0005  0.0000  0.0000  0.0000  0.0000  0.0000 </r>
        <r>  0.0008  0.0004  0.0001  0.0026  0.0000  0.0000  0.0000  0.0000  0.0000 </r>
        <r>  0.0016  0.0001  0.0000  0.0000  0.0000  0.0000  0.0000  0.0000  0.0000 </r>
        <r>  0.0008  0.0002  0.0019  0.0001  0.0000  0.0000  0.0000  0.0000  0.0000 </r>
        <r>  0.0004  0.0000  0.0001  0.0001  0.0000  0.0000  0.0000  0.0000  0.0000 </r>
        <r>  0.0012  0.0000  0.0000  0.0001  0.0000  0.0000  0.0000  0.0000  0.0000 </r>
        <r>  0.0003  0.0000  0.0003  0.0000  0.0000  0.0000  0.0000  0.0000  0.0000 </r>
        <r>  0.0008  0.0003  0.0083  0.0000  0.0000  0.0000  0.0000  0.0000  0.0000 </r>
        <r>  0.0000  0.0000  0.0006  0.0013  0.0000  0.0000  0.0000  0.0000  0.0000 </r>
       </set>
      </set>
     </set>
    </set>
   </array>
  </projected>
 </calculation>
 <structure name="finalpos" >
  <crystal>
   <varray name="basis" >
    <v>       7.75910000       0.00000000       0.00000000 </v>
    <v>       0.00000000      11.73340000       0.00000000 </v>
    <v>       0.00000000       0.00000000      11.31680000 </v>
   </varray>
   <i name="volume">   1030.28853300 </i>
   <varray name="rec_basis" >
    <v>       0.12888093       0.00000000       0.00000000 </v>
    <v>       0.00000000       0.08522679       0.00000000 </v>
    <v>       0.00000000       0.00000000       0.08836420 </v>
   </varray>
  </crystal>
  <varray name="positions" >
   <v>       0.49989944       0.71054978       0.54389096 </v>
   <v>       0.49991654       0.58270195       0.54607525 </v>
   <v>       0.49983971       0.51929038       0.44254502 </v>
   <v>       0.50025261       0.40005278       0.44148651 </v>
   <v>       0.50153219       0.34771822       0.55357164 </v>
   <v>       0.50043029       0.51912335       0.65122540 </v>
   <v>       0.50107820       0.57427454       0.33542706 </v>
   <v>       0.61391584       0.74380918       0.49751140 </v>
   <v>       0.38610184       0.74370086       0.49719148 </v>
   <v>       0.49962981       0.74454896       0.63423204 </v>
   <v>       0.53342967       0.38329536       0.26396721 </v>
   <v>       0.54149225       0.25926536       0.33992121 </v>
   <v>       0.50242704       0.25433858       0.55889225 </v>
   <v>       0.50020980       0.56400925       0.73605351 </v>
   <v>       0.49315154       0.33953460       0.33625481 </v>
   <v>       0.50166326       0.40494543       0.65557122 </v>
  </varray>
 </structure>
</modeling>
