QM9                                     
           1
     7.759100    0.000000    0.000000
     0.000000   11.733400    0.000000
     0.000000    0.000000   11.316800
   C    F    H    N 
     6     1     7     2
Direct configuration=     1
   0.49989045  0.71022040  0.54373144
   0.49998067  0.58205635  0.54586102
   0.50005800  0.51915898  0.44226283
   0.50017399  0.40030170  0.44177683
   0.50156590  0.34833893  0.55326594
   0.50047042  0.51886069  0.65062562
   0.50117926  0.57310754  0.33729500
   0.61335722  0.74368043  0.49779089
   0.38664278  0.74355259  0.49747278
   0.49961980  0.74431963  0.63356249
   0.53395368  0.38329896  0.26509261
   0.54181542  0.26024852  0.34012265
   0.50240363  0.25568037  0.55875336
   0.50019977  0.56337464  0.73490739
   0.49199005  0.33963727  0.33636717
   0.50166901  0.40532156  0.65492896
Direct configuration=     2
   0.49990417  0.70991142  0.54377123
   0.49996716  0.58262402  0.54586094
   0.50000434  0.51869646  0.44344498
   0.50017071  0.40008007  0.44136898
   0.50154232  0.34819808  0.55331463
   0.50046352  0.51900548  0.65067370
   0.50121065  0.57390468  0.33576764
   0.61365837  0.74374996  0.49766166
   0.38633068  0.74362596  0.49733972
   0.49961724  0.74438379  0.63382333
   0.53404469  0.38346936  0.26463073
   0.54193631  0.25982468  0.34012270
   0.50240461  0.25528999  0.55876927
   0.50019689  0.56357532  0.73525052
   0.49183822  0.33978836  0.33672213
   0.50168015  0.40503094  0.65529482
Direct configuration=     3
   0.49990093  0.70998442  0.54376183
   0.49997035  0.58248990  0.54586096
   0.50001702  0.51880574  0.44316568
   0.50017148  0.40013243  0.44146534
   0.50154789  0.34823136  0.55330313
   0.50046515  0.51897127  0.65066234
   0.50120324  0.57371634  0.33612851
   0.61358721  0.74373353  0.49769219
   0.38640442  0.74360863  0.49737116
   0.49961785  0.74436863  0.63376170
   0.53402319  0.38342910  0.26473986
   0.54190775  0.25992482  0.34012269
   0.50240438  0.25538222  0.55876551
   0.50019757  0.56352791  0.73516945
   0.49187409  0.33975266  0.33663827
   0.50167752  0.40509961  0.65520838
Direct configuration=     4
   0.49990546  0.71011813  0.54377075
   0.49997372  0.58267316  0.54612900
   0.49997770  0.51898357  0.44288934
   0.50018022  0.39998827  0.44162019
   0.50153226  0.34799953  0.55339121
   0.50046304  0.51903628  0.65087035
   0.50117205  0.57397749  0.33567105
   0.61373029  0.74374545  0.49761994
   0.38626745  0.74362225  0.49729960
   0.49961940  0.74437563  0.63391154
   0.53389791  0.38344055  0.26458118
   0.54182411  0.25977556  0.34013333
   0.50240819  0.25505924  0.55877561
   0.50019801  0.56368616  0.73542839
   0.49213453  0.33963916  0.33635925
   0.50168572  0.40503815  0.65536626
Direct configuration=     5
   0.49990717  0.71016879  0.54377414
   0.49997499  0.58274260  0.54623056
   0.49996280  0.51905095  0.44278463
   0.50018354  0.39993364  0.44167886
   0.50152633  0.34791168  0.55342459
   0.50046224  0.51906092  0.65094916
   0.50116023  0.57407645  0.33549771
   0.61378451  0.74374997  0.49759256
   0.38621554  0.74362741  0.49727249
   0.49961999  0.74437828  0.63396831
   0.53385043  0.38344489  0.26452106
   0.54179241  0.25971901  0.34013736
   0.50240963  0.25493686  0.55877943
   0.50019818  0.56374612  0.73552651
   0.49223321  0.33959615  0.33625353
   0.50168882  0.40501486  0.65542608
Direct configuration=     6
   0.49990174  0.71046007  0.54384680
   0.49995723  0.58265829  0.54605089
   0.49991999  0.51929333  0.44261804
   0.50018578  0.40000495  0.44147945
   0.50153310  0.34775447  0.55366923
   0.50045170  0.51902065  0.65118529
   0.50112531  0.57416491  0.33541090
   0.61386538  0.74374986  0.49754528
   0.38614880  0.74362847  0.49722759
   0.49962420  0.74440560  0.63406034
   0.53375641  0.38346547  0.26427996
   0.54170414  0.25954506  0.34008474
   0.50241511  0.25461648  0.55880927
   0.50020180  0.56388558  0.73578958
   0.49249107  0.33950025  0.33627990
   0.50168827  0.40500513  0.65547972
Direct configuration=     7
   0.49990187  0.71045314  0.54384508
   0.49995766  0.58266029  0.54605517
   0.49992101  0.51928756  0.44262200
   0.50018573  0.40000325  0.44148420
   0.50153294  0.34775821  0.55366341
   0.50045195  0.51902161  0.65117967
   0.50112614  0.57416280  0.33541297
   0.61386345  0.74374986  0.49754640
   0.38615039  0.74362845  0.49722866
   0.49962410  0.74440495  0.63405815
   0.53375865  0.38346498  0.26428570
   0.54170624  0.25954920  0.34008600
   0.50241498  0.25462410  0.55880856
   0.50020171  0.56388226  0.73578332
   0.49248494  0.33950253  0.33627927
   0.50168828  0.40500536  0.65547844
Direct configuration=     8
   0.49990129  0.71055124  0.54388357
   0.49993576  0.58267278  0.54606156
   0.49988420  0.51926034  0.44248372
   0.50020403  0.40008859  0.44148870
   0.50152872  0.34772893  0.55359535
   0.50044489  0.51904422  0.65120436
   0.50109140  0.57422259  0.33542254
   0.61390579  0.74377256  0.49752077
   0.38611482  0.74365569  0.49720270
   0.49962826  0.74446682  0.63415079
   0.53360569  0.38339363  0.26413760
   0.54163102  0.25937177  0.34001467
   0.50242181  0.25441400  0.55885547
   0.50020627  0.56397252  0.73596940
   0.49278451  0.33954507  0.33624942
   0.50168159  0.40499783  0.65557636
Direct configuration=     9
   0.49990124  0.71055806  0.54388625
   0.49993423  0.58267365  0.54606201
   0.49988164  0.51925844  0.44247409
   0.50020531  0.40009453  0.44148901
   0.50152843  0.34772689  0.55359061
   0.50044440  0.51904579  0.65120608
   0.50108898  0.57422675  0.33542320
   0.61390873  0.74377414  0.49751899
   0.38611234  0.74365758  0.49720089
   0.49962855  0.74447113  0.63415723
   0.53359504  0.38338867  0.26412729
   0.54162578  0.25935942  0.34000971
   0.50242229  0.25439938  0.55885874
   0.50020658  0.56397880  0.73598235
   0.49280536  0.33954803  0.33624734
   0.50168112  0.40499731  0.65558318
Direct configuration=    10
   0.49989944  0.71054978  0.54389096
   0.49991654  0.58270195  0.54607525
   0.49983971  0.51929038  0.44254502
   0.50025261  0.40005278  0.44148651
   0.50153219  0.34771822  0.55357164
   0.50043029  0.51912335  0.65122540
   0.50107820  0.57427454  0.33542706
   0.61391584  0.74380918  0.49751140
   0.38610184  0.74370086  0.49719148
   0.49962981  0.74454896  0.63423204
   0.53342967  0.38329536  0.26396721
   0.54149225  0.25926536  0.33992121
   0.50242704  0.25433858  0.55889225
   0.50020980  0.56400925  0.73605351
   0.49315154  0.33953460  0.33625481
   0.50166326  0.40494543  0.65557122
