  77  77   0   0
  0.3378990E+02  0.1083130E-08  0.1083130E-08  0.2560860E-08  0.2000000E-15
  1.000000000000000E-004
  CAR 
 Bulk                                    
      7.36338017    -44.36456941  301      1.71177394      1.00000000
    -44.365  0.0000E+00  0.0000E+00
    -44.192  0.0000E+00  0.0000E+00
    -44.020  0.0000E+00  0.0000E+00
    -43.847  0.0000E+00  0.0000E+00
    -43.675  0.0000E+00  0.0000E+00
    -43.502  0.0000E+00  0.0000E+00
    -43.330  0.0000E+00  0.0000E+00
    -43.158  0.0000E+00  0.0000E+00
    -42.985 -0.1013E-39 -0.1747E-40
    -42.813 -0.1531E-26 -0.2641E-27
    -42.640 -0.5772E-16 -0.9952E-17
    -42.468 -0.5014E-08 -0.8645E-09
    -42.295 -0.9595E-03 -0.1655E-03
    -42.123 -0.2697E+00 -0.4667E-01
    -41.951  0.7143E+01  0.1185E+01
    -41.778  0.6705E+02  0.1275E+02
    -41.606  0.7834E+02  0.2625E+02
    -41.433  0.6885E+02  0.3812E+02
    -41.261  0.7723E+02  0.5144E+02
    -41.088  0.1166E+03  0.7154E+02
    -40.916  0.1862E+03  0.1036E+03
    -40.744  0.8113E+02  0.1176E+03
    -40.571  0.5883E+02  0.1278E+03
    -40.399  0.1359E+01  0.1280E+03
    -40.226 -0.8996E-01  0.1280E+03
    -40.054 -0.6041E-05  0.1280E+03
    -39.881 -0.8121E-12  0.1280E+03
    -39.709  0.0000E+00  0.1280E+03
    -39.537  0.0000E+00  0.1280E+03
    -39.364  0.0000E+00  0.1280E+03
    -39.192  0.0000E+00  0.1280E+03
    -39.019  0.0000E+00  0.1280E+03
    -38.847  0.0000E+00  0.1280E+03
    -38.674  0.0000E+00  0.1280E+03
    -38.502  0.0000E+00  0.1280E+03
    -38.330  0.0000E+00  0.1280E+03
    -38.157  0.0000E+00  0.1280E+03
    -37.985  0.0000E+00  0.1280E+03
    -37.812  0.0000E+00  0.1280E+03
    -37.640  0.0000E+00  0.1280E+03
    -37.468  0.0000E+00  0.1280E+03
    -37.295  0.0000E+00  0.1280E+03
    -37.123  0.0000E+00  0.1280E+03
    -36.950  0.0000E+00  0.1280E+03
    -36.778  0.0000E+00  0.1280E+03
    -36.605  0.0000E+00  0.1280E+03
    -36.433  0.0000E+00  0.1280E+03
    -36.261  0.0000E+00  0.1280E+03
    -36.088  0.0000E+00  0.1280E+03
    -35.916  0.0000E+00  0.1280E+03
    -35.743  0.0000E+00  0.1280E+03
    -35.571  0.0000E+00  0.1280E+03
    -35.398  0.0000E+00  0.1280E+03
    -35.226  0.0000E+00  0.1280E+03
    -35.054  0.0000E+00  0.1280E+03
    -34.881  0.0000E+00  0.1280E+03
    -34.709  0.0000E+00  0.1280E+03
    -34.536  0.0000E+00  0.1280E+03
    -34.364  0.0000E+00  0.1280E+03
    -34.191  0.0000E+00  0.1280E+03
    -34.019  0.0000E+00  0.1280E+03
    -33.847  0.0000E+00  0.1280E+03
    -33.674  0.0000E+00  0.1280E+03
    -33.502  0.0000E+00  0.1280E+03
    -33.329  0.0000E+00  0.1280E+03
    -33.157  0.0000E+00  0.1280E+03
    -32.984  0.0000E+00  0.1280E+03
    -32.812  0.0000E+00  0.1280E+03
    -32.640  0.0000E+00  0.1280E+03
    -32.467  0.0000E+00  0.1280E+03
    -32.295  0.0000E+00  0.1280E+03
    -32.122  0.0000E+00  0.1280E+03
    -31.950  0.0000E+00  0.1280E+03
    -31.777  0.0000E+00  0.1280E+03
    -31.605  0.0000E+00  0.1280E+03
    -31.433  0.0000E+00  0.1280E+03
    -31.260  0.0000E+00  0.1280E+03
    -31.088  0.0000E+00  0.1280E+03
    -30.915  0.0000E+00  0.1280E+03
    -30.743  0.0000E+00  0.1280E+03
    -30.570  0.0000E+00  0.1280E+03
    -30.398  0.0000E+00  0.1280E+03
    -30.226  0.0000E+00  0.1280E+03
    -30.053  0.0000E+00  0.1280E+03
    -29.881  0.0000E+00  0.1280E+03
    -29.708  0.0000E+00  0.1280E+03
    -29.536  0.0000E+00  0.1280E+03
    -29.363  0.0000E+00  0.1280E+03
    -29.191  0.0000E+00  0.1280E+03
    -29.019  0.0000E+00  0.1280E+03
    -28.846  0.0000E+00  0.1280E+03
    -28.674  0.0000E+00  0.1280E+03
    -28.501  0.0000E+00  0.1280E+03
    -28.329  0.0000E+00  0.1280E+03
    -28.156  0.0000E+00  0.1280E+03
    -27.984  0.0000E+00  0.1280E+03
    -27.812  0.0000E+00  0.1280E+03
    -27.639  0.0000E+00  0.1280E+03
    -27.467  0.0000E+00  0.1280E+03
    -27.294  0.0000E+00  0.1280E+03
    -27.122  0.0000E+00  0.1280E+03
    -26.949  0.0000E+00  0.1280E+03
    -26.777  0.0000E+00  0.1280E+03
    -26.605  0.0000E+00  0.1280E+03
    -26.432  0.0000E+00  0.1280E+03
    -26.260  0.0000E+00  0.1280E+03
    -26.087  0.0000E+00  0.1280E+03
    -25.915  0.0000E+00  0.1280E+03
    -25.743  0.0000E+00  0.1280E+03
    -25.570  0.0000E+00  0.1280E+03
    -25.398  0.0000E+00  0.1280E+03
    -25.225  0.0000E+00  0.1280E+03
    -25.053  0.0000E+00  0.1280E+03
    -24.880  0.0000E+00  0.1280E+03
    -24.708  0.0000E+00  0.1280E+03
    -24.536  0.0000E+00  0.1280E+03
    -24.363 -0.9392E-40  0.1280E+03
    -24.191 -0.1439E-26  0.1280E+03
    -24.018 -0.5497E-16  0.1280E+03
    -23.846 -0.4839E-08  0.1280E+03
    -23.673 -0.9266E-03  0.1280E+03
    -23.501 -0.1255E+00  0.1280E+03
    -23.329  0.3723E+01  0.1286E+03
    -23.156  0.2789E+00  0.1287E+03
    -22.984 -0.8616E-02  0.1287E+03
    -22.811 -0.2639E-06  0.1287E+03
    -22.639 -0.1545E-13  0.1287E+03
    -22.466  0.0000E+00  0.1287E+03
    -22.294  0.0000E+00  0.1287E+03
    -22.122  0.0000E+00  0.1287E+03
    -21.949  0.0000E+00  0.1287E+03
    -21.777 -0.3255E-27  0.1287E+03
    -21.604 -0.1720E-16  0.1287E+03
    -21.432 -0.2103E-08  0.1287E+03
    -21.259 -0.5653E-03  0.1287E+03
    -21.087 -0.1360E+00  0.1286E+03
    -20.915  0.3563E+01  0.1293E+03
    -20.742  0.4528E+00  0.1293E+03
    -20.570 -0.1250E-01  0.1293E+03
    -20.397 -0.5441E-06  0.1293E+03
    -20.225 -0.4464E-13  0.1293E+03
    -20.052  0.0000E+00  0.1293E+03
    -19.880  0.0000E+00  0.1293E+03
    -19.708  0.0000E+00  0.1293E+03
    -19.535  0.0000E+00  0.1293E+03
    -19.363  0.0000E+00  0.1293E+03
    -19.190  0.0000E+00  0.1293E+03
    -19.018 -0.2309E-33  0.1293E+03
    -18.845 -0.2248E-21  0.1293E+03
    -18.673 -0.5222E-12  0.1293E+03
    -18.501 -0.2845E-05  0.1293E+03
    -18.328 -0.2784E-01  0.1293E+03
    -18.156  0.1005E+01  0.1295E+03
    -17.983  0.3009E+01  0.1300E+03
    -17.811 -0.1203E+00  0.1300E+03
    -17.638 -0.1608E-03  0.1300E+03
    -17.466 -0.2673E-09  0.1300E+03
    -17.294  0.0000E+00  0.1300E+03
    -17.121  0.0000E+00  0.1300E+03
    -16.949  0.0000E+00  0.1300E+03
    -16.776  0.0000E+00  0.1300E+03
    -16.604  0.0000E+00  0.1300E+03
    -16.431  0.0000E+00  0.1300E+03
    -16.259  0.0000E+00  0.1300E+03
    -16.087  0.0000E+00  0.1300E+03
    -15.914  0.0000E+00  0.1300E+03
    -15.742  0.0000E+00  0.1300E+03
    -15.569  0.0000E+00  0.1300E+03
    -15.397  0.0000E+00  0.1300E+03
    -15.224  0.0000E+00  0.1300E+03
    -15.052 -0.5781E-37  0.1300E+03
    -14.880 -0.2740E-24  0.1300E+03
    -14.707 -0.3224E-14  0.1300E+03
    -14.535 -0.8586E-07  0.1300E+03
    -14.362 -0.4734E-02  0.1300E+03
    -14.190  0.8196E-01  0.1300E+03
    -14.018  0.3869E+01  0.1307E+03
    -13.845 -0.7777E-01  0.1307E+03
    -13.673 -0.1880E-02  0.1307E+03
    -13.500 -0.1641E-07  0.1307E+03
    -13.328  0.0000E+00  0.1307E+03
    -13.155  0.0000E+00  0.1307E+03
    -12.983  0.0000E+00  0.1307E+03
    -12.811  0.0000E+00  0.1307E+03
    -12.638  0.0000E+00  0.1307E+03
    -12.466 -0.1643E-29  0.1307E+03
    -12.293 -0.2670E-18  0.1307E+03
    -12.121 -0.1018E-09  0.1307E+03
    -11.948 -0.8792E-04  0.1307E+03
    -11.776 -0.1039E+00  0.1306E+03
    -11.604  0.2699E+01  0.1311E+03
    -11.431  0.1309E+01  0.1313E+03
    -11.259 -0.3832E-01  0.1313E+03
    -11.086 -0.5808E-05  0.1313E+03
    -10.914 -0.1525E-11  0.1313E+03
    -10.741  0.0000E+00  0.1313E+03
    -10.569 -0.1475E-27  0.1313E+03
    -10.397 -0.9246E-17  0.1313E+03
    -10.224 -0.1344E-08  0.1313E+03
    -10.052 -0.4321E-03  0.1313E+03
     -9.879 -0.1365E+00  0.1313E+03
     -9.707  0.3460E+01  0.1319E+03
     -9.534  0.5587E+00  0.1320E+03
     -9.362 -0.1508E-01  0.1320E+03
     -9.190 -0.7914E-06  0.1320E+03
     -9.017 -0.7816E-13  0.1320E+03
     -8.845 -0.3604E-08  0.1320E+03
     -8.672 -0.7788E-03  0.1320E+03
     -8.500 -0.1308E+00  0.1320E+03
     -8.327  0.3671E+01  0.1326E+03
     -8.155  0.3368E+00  0.1327E+03
     -7.983 -0.1017E-01  0.1327E+03
     -7.810 -0.1336E+00  0.1326E+03
     -7.638  0.3323E+01  0.1332E+03
     -7.465  0.6955E+00  0.1333E+03
     -7.293 -0.1338E+00  0.1333E+03
     -7.120  0.2910E+01  0.1338E+03
     -6.948  0.1100E+01  0.1340E+03
     -6.776 -0.8206E-01  0.1340E+03
     -6.603  0.3891E+01  0.1347E+03
     -6.431  0.2991E-01  0.1347E+03
     -6.258 -0.3082E-01  0.1347E+03
     -6.086  0.3893E+01  0.1353E+03
     -5.913  0.1452E+00  0.1354E+03
     -5.741  0.3817E+01  0.1360E+03
     -5.569  0.1794E+00  0.1360E+03
     -5.396  0.4308E+01  0.1368E+03
     -5.224  0.3290E+01  0.1374E+03
     -5.051 -0.1368E+00  0.1373E+03
     -4.879 -0.9596E-02  0.1373E+03
     -4.706  0.3063E+00  0.1374E+03
     -4.534  0.3126E+01  0.1379E+03
     -4.362  0.1476E+02  0.1405E+03
     -4.189  0.4961E+02  0.1490E+03
     -4.017  0.4601E+01  0.1498E+03
     -3.844  0.4705E+01  0.1506E+03
     -3.672  0.1189E+02  0.1527E+03
     -3.499  0.4010E+02  0.1596E+03
     -3.327  0.5503E+02  0.1691E+03
     -3.155  0.4392E+01  0.1698E+03
     -2.982  0.2739E+02  0.1746E+03
     -2.810  0.4861E+02  0.1829E+03
     -2.637  0.2292E+02  0.1869E+03
     -2.465  0.3658E+02  0.1932E+03
     -2.293  0.1137E+02  0.1952E+03
     -2.120  0.2802E+02  0.2000E+03
     -1.948  0.2666E+02  0.2046E+03
     -1.775  0.2218E+02  0.2084E+03
     -1.603  0.2484E+02  0.2127E+03
     -1.430  0.2079E+02  0.2163E+03
     -1.258  0.4233E+00  0.2164E+03
     -1.086  0.5632E+02  0.2261E+03
     -0.913  0.3285E+02  0.2317E+03
     -0.741  0.2695E+02  0.2364E+03
     -0.568  0.2526E+02  0.2407E+03
     -0.396  0.5480E+02  0.2502E+03
     -0.223  0.4791E+02  0.2584E+03
     -0.051  0.7482E+02  0.2714E+03
      0.121  0.5007E+02  0.2800E+03
      0.294  0.1572E+02  0.2827E+03
      0.466  0.6983E+01  0.2839E+03
      0.639  0.2342E+02  0.2879E+03
      0.811  0.1416E+02  0.2904E+03
      0.984  0.1387E+02  0.2928E+03
      1.156  0.5254E+02  0.3018E+03
      1.328  0.9013E+01  0.3034E+03
      1.501 -0.5786E+00  0.3033E+03
      1.673  0.3001E+02  0.3085E+03
      1.846  0.6724E+02  0.3201E+03
      2.018  0.3694E+02  0.3264E+03
      2.191  0.1216E+02  0.3285E+03
      2.363  0.4613E+01  0.3293E+03
      2.535 -0.1301E+01  0.3291E+03
      2.708  0.4401E+02  0.3367E+03
      2.880  0.3034E+02  0.3419E+03
      3.053  0.7185E+01  0.3432E+03
      3.225  0.6322E+02  0.3541E+03
      3.398  0.4816E+02  0.3624E+03
      3.570  0.9328E+01  0.3640E+03
      3.742  0.1520E+02  0.3666E+03
      3.915  0.1594E+02  0.3693E+03
      4.087  0.5597E+01  0.3703E+03
      4.260  0.6232E+01  0.3714E+03
      4.432 -0.2216E+00  0.3713E+03
      4.605 -0.3418E-03  0.3713E+03
      4.777 -0.1793E+00  0.3713E+03
      4.949  0.4937E+01  0.3722E+03
      5.122  0.7076E+01  0.3734E+03
      5.294 -0.2342E+00  0.3733E+03
      5.467 -0.9824E-03  0.3733E+03
      5.639 -0.5033E-08  0.3733E+03
      5.812  0.0000E+00  0.3733E+03
      5.984  0.0000E+00  0.3733E+03
      6.156  0.0000E+00  0.3733E+03
      6.329  0.0000E+00  0.3733E+03
      6.501  0.0000E+00  0.3733E+03
      6.674  0.0000E+00  0.3733E+03
      6.846  0.0000E+00  0.3733E+03
      7.019  0.0000E+00  0.3733E+03
      7.191  0.0000E+00  0.3733E+03
      7.363  0.0000E+00  0.3733E+03
