       N       E                     dE             d eps       ncg     rms          rms(c)
DAV:   1     0.125908630554E+05    0.12591E+05   -0.61475E+05  1376   0.162E+03
DAV:   2    -0.882077376646E+02   -0.12679E+05   -0.12204E+05  1200   0.524E+02
DAV:   3    -0.657770669900E+03   -0.56956E+03   -0.53294E+03  1360   0.107E+02
DAV:   4    -0.686227004947E+03   -0.28456E+02   -0.27357E+02  1408   0.182E+01
DAV:   5    -0.687327976334E+03   -0.11010E+01   -0.10859E+01  1504   0.316E+00    0.943E+01
DAV:   6    -0.652023793845E+03    0.35304E+02   -0.14794E+02  1248   0.250E+01    0.400E+01
DAV:   7    -0.851282085756E+03   -0.19926E+03   -0.22846E+02  1312   0.665E+01    0.137E+02
DAV:   8    -0.715019757401E+03    0.13626E+03   -0.15533E+02  1392   0.297E+01    0.720E+01
DAV:   9    -0.649474164305E+03    0.65546E+02   -0.89077E+01  1424   0.253E+01    0.319E+01
DAV:  10    -0.637791780162E+03    0.11682E+02   -0.22375E+01  1280   0.123E+01    0.103E+01
DAV:  11    -0.637736984290E+03    0.54796E-01   -0.49240E+00  1264   0.830E+00    0.958E+00
DAV:  12    -0.637166216522E+03    0.57077E+00   -0.20022E+00  1280   0.519E+00    0.694E+00
DAV:  13    -0.636905736131E+03    0.26048E+00   -0.11041E+00  1296   0.376E+00    0.495E+00
DAV:  14    -0.636941471432E+03   -0.35735E-01   -0.65327E-01  1304   0.282E+00    0.511E+00
DAV:  15    -0.636773547982E+03    0.16792E+00   -0.62862E-01  1320   0.274E+00    0.310E+00
DAV:  16    -0.636796368653E+03   -0.22821E-01   -0.31543E-01  1328   0.208E+00    0.326E+00
DAV:  17    -0.636711831010E+03    0.84538E-01   -0.20568E-01  1320   0.159E+00    0.165E+00
DAV:  18    -0.636697769816E+03    0.14061E-01   -0.62815E-02  1328   0.816E-01    0.111E+00
DAV:  19    -0.636691409401E+03    0.63604E-02   -0.21059E-02  1312   0.466E-01    0.747E-01
DAV:  20    -0.636688977103E+03    0.24323E-02   -0.12923E-02  1304   0.373E-01    0.580E-01
DAV:  21    -0.636688531841E+03    0.44526E-03   -0.75571E-03  1320   0.286E-01    0.516E-01
DAV:  22    -0.636687023010E+03    0.15088E-02   -0.46923E-03  1312   0.248E-01    0.317E-01
DAV:  23    -0.636687498580E+03   -0.47557E-03   -0.28119E-03  1304   0.176E-01    0.313E-01
DAV:  24    -0.636687219249E+03    0.27933E-03   -0.20373E-03  1296   0.156E-01    0.165E-01
DAV:  25    -0.636687677538E+03   -0.45829E-03   -0.14018E-03  1304   0.125E-01    0.167E-01
DAV:  26    -0.636688505990E+03   -0.82845E-03   -0.13568E-03  1280   0.115E-01    0.149E-01
DAV:  27    -0.636688761922E+03   -0.25593E-03   -0.66000E-04  1288   0.848E-02    0.819E-02
DAV:  28    -0.636689359613E+03   -0.59769E-03   -0.33296E-04  1128   0.557E-02    0.101E-01
DAV:  29    -0.636690065254E+03   -0.70564E-03   -0.26884E-04  1048   0.500E-02    0.602E-02
DAV:  30    -0.636690405010E+03   -0.33976E-03   -0.10819E-04  1104   0.331E-02    0.569E-02
DAV:  31    -0.636691041161E+03   -0.63615E-03   -0.87985E-05  1024   0.268E-02    0.412E-02
DAV:  32    -0.636691263125E+03   -0.22196E-03   -0.40054E-05   912   0.219E-02    0.258E-02
DAV:  33    -0.636691550689E+03   -0.28756E-03   -0.31866E-05   832   0.185E-02    0.290E-02
DAV:  34    -0.636691739405E+03   -0.18872E-03   -0.33336E-05   864   0.161E-02    0.145E-02
DAV:  35    -0.636691799257E+03   -0.59852E-04   -0.86148E-06   736   0.926E-03    0.919E-03
DAV:  36    -0.636691910669E+03   -0.11141E-03   -0.12542E-05   808   0.719E-03    0.109E-02
DAV:  37    -0.636691955925E+03   -0.45257E-04   -0.38519E-06   688   0.615E-03    0.587E-03
DAV:  38    -0.636692035057E+03   -0.79132E-04   -0.28187E-06   688   0.450E-03    0.805E-03
DAV:  39    -0.636692113065E+03   -0.78007E-04   -0.40712E-06   720   0.427E-03    0.469E-03
DAV:  40    -0.636692151724E+03   -0.38659E-04   -0.13938E-06   648   0.292E-03    0.456E-03
DAV:  41    -0.636692230704E+03   -0.78980E-04   -0.29173E-06   704   0.254E-03    0.321E-03
DAV:  42    -0.636692257330E+03   -0.26626E-04   -0.86988E-07   648   0.201E-03    0.217E-03
DAV:  43    -0.636692314875E+03   -0.57545E-04   -0.26450E-06   704   0.202E-03    0.255E-03
DAV:  44    -0.636692335857E+03   -0.20982E-04   -0.99302E-07   640   0.179E-03    0.119E-03
DAV:  45    -0.636692346203E+03   -0.10346E-04   -0.39037E-07   616   0.102E-03    0.106E-03
DAV:  46    -0.636692353123E+03   -0.69199E-05   -0.30807E-07   616   0.821E-04
   1 F= -.63669235E+03 E0= -.63666893E+03  d E =-.636692E+03
       N       E                     dE             d eps       ncg     rms          rms(c)
DAV:   1    -0.636745025449E+03   -0.52679E-01   -0.37303E+01  1128   0.160E+01    0.145E+00
DAV:   2    -0.636983541355E+03   -0.23852E+00   -0.21920E+00  1152   0.305E+00    0.236E+00
DAV:   3    -0.637039822438E+03   -0.56281E-01   -0.23402E-01  1296   0.190E+00    0.345E+00
DAV:   4    -0.637000162665E+03    0.39660E-01   -0.61049E-02  1344   0.163E+00    0.270E+00
DAV:   5    -0.636939038118E+03    0.61125E-01   -0.42078E-02  1288   0.929E-01    0.779E-01
DAV:   6    -0.636941320755E+03   -0.22826E-02   -0.27439E-02  1320   0.616E-01    0.918E-01
DAV:   7    -0.636939191824E+03    0.21289E-02   -0.25764E-02  1328   0.575E-01    0.770E-01
DAV:   8    -0.636934008820E+03    0.51830E-02   -0.15077E-02  1328   0.448E-01    0.312E-01
DAV:   9    -0.636934269829E+03   -0.26101E-03   -0.48746E-03  1336   0.248E-01    0.325E-01
DAV:  10    -0.636933360915E+03    0.90891E-03   -0.21945E-03  1312   0.177E-01    0.140E-01
DAV:  11    -0.636933248571E+03    0.11234E-03   -0.67578E-04  1328   0.937E-02    0.823E-02
DAV:  12    -0.636933259584E+03   -0.11013E-04   -0.24007E-04  1232   0.538E-02    0.804E-02
DAV:  13    -0.636933217092E+03    0.42492E-04   -0.13449E-04  1120   0.423E-02    0.332E-02
DAV:  14    -0.636933257557E+03   -0.40465E-04   -0.80887E-05  1072   0.305E-02    0.469E-02
DAV:  15    -0.636933258664E+03   -0.11073E-05   -0.50660E-05   928   0.247E-02
   2 F= -.63693326E+03 E0= -.63692058E+03  d E =-.240906E+00
       N       E                     dE             d eps       ncg     rms          rms(c)
DAV:   1    -0.636933367247E+03   -0.10969E-03   -0.81888E-01  1136   0.237E+00    0.215E-01
DAV:   2    -0.636938604784E+03   -0.52375E-02   -0.47172E-02  1176   0.453E-01    0.368E-01
DAV:   3    -0.636939907978E+03   -0.13032E-02   -0.38912E-03  1288   0.288E-01    0.532E-01
DAV:   4    -0.636938794668E+03    0.11133E-02   -0.13239E-03  1312   0.260E-01    0.381E-01
DAV:   5    -0.636937536645E+03    0.12580E-02   -0.10303E-03  1288   0.140E-01    0.112E-01
DAV:   6    -0.636937626066E+03   -0.89421E-04   -0.61068E-04  1320   0.919E-02    0.141E-01
DAV:   7    -0.636937609841E+03    0.16225E-04   -0.68598E-04  1328   0.894E-02    0.124E-01
DAV:   8    -0.636937474863E+03    0.13498E-03   -0.36398E-04  1312   0.691E-02    0.423E-02
DAV:   9    -0.636937491305E+03   -0.16441E-04   -0.10511E-04  1112   0.350E-02    0.455E-02
DAV:  10    -0.636937482888E+03    0.84168E-05   -0.46742E-05   896   0.248E-02
   3 F= -.63693748E+03 E0= -.63692630E+03  d E =-.245130E+00
