 vasp.6.4.2 20Jul23 (build Oct 20 2023 11:58:12) gamma-only                     
  
 executed on             LinuxIFC date 2024.07.20  19:04:17
 running   52 mpi-ranks, with    1 threads/rank, on    1 nodes
 distrk:  each k-point on   52 cores,    1 groups
 distr:  one band on NCORE=  13 cores,    4 groups


--------------------------------------------------------------------------------------------------------


 INCAR:
   SYSTEM = Bulk
   LCHARG = T
   LWAVE = T
   ISTART = 1
   ICHARG = 1
   ISMEAR = 1
   SIGMA = 0.1
   ENCUT = 500
   EDIFF = 1E-5
   NELM = 150
   NELMIN = 6
   ISIF = 2
   ALGO = Normal
   LREAL = Auto
   ISYM = 0
   IBRION = 2
   POTIM = 0.2
   EDIFFG = -0.02
   NSW = 3
   LWAVE = .FALSE.
   LCHARG = .FALSE.
   NPAR = 4

 POTCAR:    PAW_PBE Ru_pv 28Jan2005               
 POTCAR:    PAW_PBE N 08Apr2002                   
 POTCAR:    PAW_PBE H 15Jun2001                   
 POTCAR:    PAW_PBE C 08Apr2002                   
 POTCAR:    PAW_PBE O 08Apr2002                   
 POTCAR:    PAW_PBE Ru_pv 28Jan2005               
   VRHFIN =Ru: 4p5s4d                                                                               
   LEXCH  = PE                                                                                      
   EATOM  =  1873.4746 eV,  137.6965 Ry                                                             
                                                                                                    
   TITEL  = PAW_PBE Ru_pv 28Jan2005                                                                 
   LULTRA =        F    use ultrasoft PP ?                                                          
   IUNSCR =        1    unscreen: 0-lin 1-nonlin 2-no                                               
   RPACOR =    2.170    partial core radius                                                         
   POMASS =  101.070; ZVAL   =   14.000    mass and valenz                                          
   RCORE  =    2.500    outmost cutoff radius                                                       
   RWIGS  =    2.650; RWIGS  =    1.402    wigner-seitz radius (au A)                               
   ENMAX  =  240.049; ENMIN  =  180.037 eV                                                          
   ICORE  =        3    local potential                                                             
   LCOR   =        T    correct aug charges                                                         
   LPAW   =        T    paw PP                                                                      
   EAUG   =  430.792                                                                                
   DEXC   =    0.000                                                                                
   RMAX   =    2.546    core radius for proj-oper                                                   
   RAUG   =    1.300    factor for augmentation sphere                                              
   RDEP   =    2.520    radius for radial grids                                                     
   RDEPT  =    2.044    core radius for aug-charge                                                  
                                                                                                    
   Atomic configuration                                                                             
   11 entries                                                                                       
     n  l   j            E        occ.                                                              
     1  0  0.50    -21933.2692   2.0000                                                             
     2  0  0.50     -3153.4096   2.0000                                                             
     2  1  1.50     -2823.9548   6.0000                                                             
     3  0  0.50      -555.3322   2.0000                                                             
     3  1  1.50      -447.1024   6.0000                                                             
     3  2  2.50      -273.0570  10.0000                                                             
     4  0  0.50       -76.3589   2.0000                                                             
     4  1  1.50       -46.4050   6.0000                                                             
     4  2  2.50        -5.2029   7.0000                                                             
     5  0  0.50        -4.2392   1.0000                                                             
     4  3  2.50        -1.3606   0.0000                                                             
   Description                                                                                      
     l       E           TYP  RCUT    TYP  RCUT                                                     
     1    -46.4050190     23  2.100                                                                 
     1      4.0817478     23  2.100                                                                 
     2     -5.2028758     23  2.500                                                                 
     2     -6.5634584     23  2.500                                                                 
     0     -4.2392192     23  2.500                                                                 
     0      7.0918828     23  2.500                                                                 
     3     -5.4423304     23  2.500                                                                 
  local pseudopotential read in
  partial core-charges read in
  partial kinetic energy density read in
  atomic valenz-charges read in
  non local Contribution for L=           1  read in
    real space projection operators read in
  non local Contribution for L=           1  read in
    real space projection operators read in
  non local Contribution for L=           2  read in
    real space projection operators read in
  non local Contribution for L=           2  read in
    real space projection operators read in
  non local Contribution for L=           0  read in
    real space projection operators read in
  non local Contribution for L=           0  read in
    real space projection operators read in
    PAW grid and wavefunctions read in
 
   number of l-projection  operators is LMAX  =           6
   number of lm-projection operators is LMMAX =          18
 
 POTCAR:    PAW_PBE N 08Apr2002                   
   VRHFIN =N: s2p3                                                                                  
   LEXCH  = PE                                                                                      
   EATOM  =   264.5486 eV,   19.4438 Ry                                                             
                                                                                                    
   TITEL  = PAW_PBE N 08Apr2002                                                                     
   LULTRA =        F    use ultrasoft PP ?                                                          
   IUNSCR =        1    unscreen: 0-lin 1-nonlin 2-no                                               
   RPACOR =    1.200    partial core radius                                                         
   POMASS =   14.001; ZVAL   =    5.000    mass and valenz                                          
   RCORE  =    1.500    outmost cutoff radius                                                       
   RWIGS  =    1.400; RWIGS  =    0.741    wigner-seitz radius (au A)                               
   ENMAX  =  400.000; ENMIN  =  300.000 eV                                                          
   ICORE  =        2    local potential                                                             
   LCOR   =        T    correct aug charges                                                         
   LPAW   =        T    paw PP                                                                      
   EAUG   =  627.112                                                                                
   DEXC   =    0.000                                                                                
   RMAX   =    1.529    core radius for proj-oper                                                   
   RAUG   =    1.300    factor for augmentation sphere                                              
   RDEP   =    1.514    radius for radial grids                                                     
   RDEPT  =    1.338    core radius for aug-charge                                                  
                                                                                                    
   Atomic configuration                                                                             
    4 entries                                                                                       
     n  l   j            E        occ.                                                              
     1  0  0.50      -384.7179   2.0000                                                             
     2  0  0.50       -18.5828   2.0000                                                             
     2  1  0.50        -7.0898   3.0000                                                             
     3  2  1.50        -6.8029   0.0000                                                             
   Description                                                                                      
     l       E           TYP  RCUT    TYP  RCUT                                                     
     0    -18.5828119     23  1.200                                                                 
     0    -13.5018863     23  1.200                                                                 
     1     -7.0897853     23  1.500                                                                 
     1      9.5240782     23  1.500                                                                 
     2     -6.8029130      7  1.500                                                                 
  local pseudopotential read in
  partial core-charges read in
  partial kinetic energy density read in
  atomic valenz-charges read in
  non local Contribution for L=           0  read in
    real space projection operators read in
  non local Contribution for L=           0  read in
    real space projection operators read in
  non local Contribution for L=           1  read in
    real space projection operators read in
  non local Contribution for L=           1  read in
    real space projection operators read in
    PAW grid and wavefunctions read in
 
   number of l-projection  operators is LMAX  =           4
   number of lm-projection operators is LMMAX =           8
 
 POTCAR:    PAW_PBE H 15Jun2001                   
   VRHFIN =H: ultrasoft test                                                                        
   LEXCH  = PE                                                                                      
   EATOM  =    12.4884 eV,    0.9179 Ry                                                             
                                                                                                    
   TITEL  = PAW_PBE H 15Jun2001                                                                     
   LULTRA =        F    use ultrasoft PP ?                                                          
   IUNSCR =        0    unscreen: 0-lin 1-nonlin 2-no                                               
   RPACOR =    0.000    partial core radius                                                         
   POMASS =    1.000; ZVAL   =    1.000    mass and valenz                                          
   RCORE  =    1.100    outmost cutoff radius                                                       
   RWIGS  =    0.700; RWIGS  =    0.370    wigner-seitz radius (au A)                               
   ENMAX  =  250.000; ENMIN  =  200.000 eV                                                          
   RCLOC  =    0.701    cutoff for local pot                                                        
   LCOR   =        T    correct aug charges                                                         
   LPAW   =        T    paw PP                                                                      
   EAUG   =  400.000                                                                                
   RMAX   =    1.123    core radius for proj-oper                                                   
   RAUG   =    1.200    factor for augmentation sphere                                              
   RDEP   =    1.112    radius for radial grids                                                     
   RDEPT  =    0.926    core radius for aug-charge                                                  
                                                                                                    
   Atomic configuration                                                                             
    2 entries                                                                                       
     n  l   j            E        occ.                                                              
     1  0  0.50        -6.4927   1.0000                                                             
     2  1  0.50        -3.4015   0.0000                                                             
   Description                                                                                      
     l       E           TYP  RCUT    TYP  RCUT                                                     
     0     -6.4927494     23  1.100                                                                 
     0      6.8029130     23  1.100                                                                 
     1     -4.0817478     23  1.100                                                                 
  local pseudopotential read in
  atomic valenz-charges read in
  non local Contribution for L=           0  read in
    real space projection operators read in
  non local Contribution for L=           0  read in
    real space projection operators read in
  non local Contribution for L=           1  read in
    real space projection operators read in
    PAW grid and wavefunctions read in
 
   number of l-projection  operators is LMAX  =           3
   number of lm-projection operators is LMMAX =           5
 
 POTCAR:    PAW_PBE C 08Apr2002                   
   VRHFIN =C: s2p2                                                                                  
   LEXCH  = PE                                                                                      
   EATOM  =   147.1560 eV,   10.8157 Ry                                                             
                                                                                                    
   TITEL  = PAW_PBE C 08Apr2002                                                                     
   LULTRA =        F    use ultrasoft PP ?                                                          
   IUNSCR =        1    unscreen: 0-lin 1-nonlin 2-no                                               
   RPACOR =    1.200    partial core radius                                                         
   POMASS =   12.011; ZVAL   =    4.000    mass and valenz                                          
   RCORE  =    1.500    outmost cutoff radius                                                       
   RWIGS  =    1.630; RWIGS  =    0.863    wigner-seitz radius (au A)                               
   ENMAX  =  400.000; ENMIN  =  300.000 eV                                                          
   ICORE  =        2    local potential                                                             
   LCOR   =        T    correct aug charges                                                         
   LPAW   =        T    paw PP                                                                      
   EAUG   =  644.873                                                                                
   DEXC   =    0.000                                                                                
   RMAX   =    1.529    core radius for proj-oper                                                   
   RAUG   =    1.300    factor for augmentation sphere                                              
   RDEP   =    1.501    radius for radial grids                                                     
   RDEPT  =    1.300    core radius for aug-charge                                                  
                                                                                                    
   Atomic configuration                                                                             
    4 entries                                                                                       
     n  l   j            E        occ.                                                              
     1  0  0.50      -273.3789   2.0000                                                             
     2  0  0.50       -13.7508   2.0000                                                             
     2  1  0.50        -5.2854   2.0000                                                             
     3  2  1.50        -5.4423   0.0000                                                             
   Description                                                                                      
     l       E           TYP  RCUT    TYP  RCUT                                                     
     0    -13.7508458     23  1.200                                                                 
     0     -8.2022199     23  1.200                                                                 
     1     -5.2854383     23  1.500                                                                 
     1     34.0145650     23  1.500                                                                 
     2     -5.4423304      7  1.500                                                                 
  local pseudopotential read in
  partial core-charges read in
  partial kinetic energy density read in
  atomic valenz-charges read in
  non local Contribution for L=           0  read in
    real space projection operators read in
  non local Contribution for L=           0  read in
    real space projection operators read in
  non local Contribution for L=           1  read in
    real space projection operators read in
  non local Contribution for L=           1  read in
    real space projection operators read in
    PAW grid and wavefunctions read in
 
   number of l-projection  operators is LMAX  =           4
   number of lm-projection operators is LMMAX =           8
 
 POTCAR:    PAW_PBE O 08Apr2002                   
   VRHFIN =O: s2p4                                                                                  
   LEXCH  = PE                                                                                      
   EATOM  =   432.3788 eV,   31.7789 Ry                                                             
                                                                                                    
   TITEL  = PAW_PBE O 08Apr2002                                                                     
   LULTRA =        F    use ultrasoft PP ?                                                          
   IUNSCR =        1    unscreen: 0-lin 1-nonlin 2-no                                               
   RPACOR =    1.200    partial core radius                                                         
   POMASS =   16.000; ZVAL   =    6.000    mass and valenz                                          
   RCORE  =    1.520    outmost cutoff radius                                                       
   RWIGS  =    1.550; RWIGS  =    0.820    wigner-seitz radius (au A)                               
   ENMAX  =  400.000; ENMIN  =  300.000 eV                                                          
   ICORE  =        2    local potential                                                             
   LCOR   =        T    correct aug charges                                                         
   LPAW   =        T    paw PP                                                                      
   EAUG   =  605.392                                                                                
   DEXC   =    0.000                                                                                
   RMAX   =    1.553    core radius for proj-oper                                                   
   RAUG   =    1.300    factor for augmentation sphere                                              
   RDEP   =    1.550    radius for radial grids                                                     
   RDEPT  =    1.329    core radius for aug-charge                                                  
                                                                                                    
   Atomic configuration                                                                             
    4 entries                                                                                       
     n  l   j            E        occ.                                                              
     1  0  0.50      -514.6923   2.0000                                                             
     2  0  0.50       -23.9615   2.0000                                                             
     2  1  0.50        -9.0305   4.0000                                                             
     3  2  1.50        -9.5241   0.0000                                                             
   Description                                                                                      
     l       E           TYP  RCUT    TYP  RCUT                                                     
     0    -23.9615318     23  1.200                                                                 
     0     -9.5240782     23  1.200                                                                 
     1     -9.0304911     23  1.520                                                                 
     1      8.1634956     23  1.520                                                                 
     2     -9.5240782      7  1.500                                                                 
  local pseudopotential read in
  partial core-charges read in
  partial kinetic energy density read in
  kinetic energy density of atom read in
  atomic valenz-charges read in
  non local Contribution for L=           0  read in
    real space projection operators read in
  non local Contribution for L=           0  read in
    real space projection operators read in
  non local Contribution for L=           1  read in
    real space projection operators read in
  non local Contribution for L=           1  read in
    real space projection operators read in
    PAW grid and wavefunctions read in
 
   number of l-projection  operators is LMAX  =           4
   number of lm-projection operators is LMMAX =           8
 
 Optimization of the real space projectors (new method)

 maximal supplied QI-value         = 15.12
 optimisation between [QCUT,QGAM] = [ 11.34, 22.83] = [ 36.00,145.93] Ry 
 Optimized for a Real-space Cutoff    1.43 Angstroem

   l    n(q)    QCUT    max X(q) W(low)/X(q) W(high)/X(q)  e(spline) 
   1      9    11.338     3.180    0.41E-04    0.57E-05    0.54E-07
   1      9    11.338     5.351    0.17E-03    0.94E-04    0.32E-06
   2      9    11.338    66.565    0.29E-03    0.11E-04    0.27E-06
   2      9    11.338    63.466    0.30E-03    0.11E-04    0.28E-06
   0     10    11.338    85.644    0.87E-04    0.33E-04    0.16E-06
   0     10    11.338    44.119    0.80E-04    0.30E-04    0.15E-06
 Optimization of the real space projectors (new method)

 maximal supplied QI-value         = 25.13
 optimisation between [QCUT,QGAM] = [ 11.31, 22.87] = [ 35.82,146.48] Ry 
 Optimized for a Real-space Cutoff    1.27 Angstroem

   l    n(q)    QCUT    max X(q) W(low)/X(q) W(high)/X(q)  e(spline) 
   0      9    11.310    79.467    0.75E-04    0.16E-03    0.36E-06
   0      9    11.310    66.151    0.74E-04    0.16E-03    0.36E-06
   1      8    11.310    17.416    0.35E-03    0.12E-03    0.95E-06
   1      8    11.310    12.382    0.37E-03    0.13E-03    0.98E-06
 Optimization of the real space projectors (new method)

 maximal supplied QI-value         = 34.20
 optimisation between [QCUT,QGAM] = [ 11.29, 22.57] = [ 35.68,142.71] Ry 
 Optimized for a Real-space Cutoff    1.16 Angstroem

   l    n(q)    QCUT    max X(q) W(low)/X(q) W(high)/X(q)  e(spline) 
   0      8    11.287    19.460    0.40E-03    0.73E-03    0.16E-06
   0      8    11.287    12.209    0.38E-03    0.70E-03    0.15E-06
   1      7    11.287     4.655    0.22E-03    0.25E-04    0.22E-06
 Optimization of the real space projectors (new method)

 maximal supplied QI-value         = 25.13
 optimisation between [QCUT,QGAM] = [ 11.31, 22.87] = [ 35.82,146.48] Ry 
 Optimized for a Real-space Cutoff    1.00 Angstroem

   l    n(q)    QCUT    max X(q) W(low)/X(q) W(high)/X(q)  e(spline) 
   0      7    11.310   115.676    0.43E-03    0.13E-02    0.19E-06
   0      7    11.310    87.132    0.43E-03    0.13E-02    0.18E-06
   1      6    11.310     4.429    0.42E-03    0.74E-03    0.11E-06
   1      6    11.310     2.733    0.34E-03    0.55E-03    0.92E-07
 Optimization of the real space projectors (new method)

 maximal supplied QI-value         = 24.76
 optimisation between [QCUT,QGAM] = [ 11.39, 22.77] = [ 36.31,145.25] Ry 
 Optimized for a Real-space Cutoff    1.00 Angstroem

   l    n(q)    QCUT    max X(q) W(low)/X(q) W(high)/X(q)  e(spline) 
   0      7    11.387    20.381    0.39E-03    0.13E-02    0.15E-06
   0      7    11.387    15.268    0.42E-03    0.14E-02    0.17E-06
   1      6    11.387     5.964    0.41E-03    0.11E-02    0.17E-06
   1      6    11.387     5.382    0.39E-03    0.87E-03    0.15E-06
  PAW_PBE Ru_pv 28Jan2005               :
 energy of atom  1       EATOM=-1873.4746
 kinetic energy error for atom=    0.0074 (will be added to EATOM!!)
  PAW_PBE N 08Apr2002                   :
 energy of atom  2       EATOM= -264.5486
 kinetic energy error for atom=    0.0138 (will be added to EATOM!!)
  PAW_PBE H 15Jun2001                   :
 energy of atom  3       EATOM=  -12.4884
 kinetic energy error for atom=    0.0020 (will be added to EATOM!!)
  PAW_PBE C 08Apr2002                   :
 energy of atom  4       EATOM= -147.1560
 kinetic energy error for atom=    0.0076 (will be added to EATOM!!)
  PAW_PBE O 08Apr2002                   :
 energy of atom  5       EATOM= -432.3788
 kinetic energy error for atom=    0.0224 (will be added to EATOM!!)
 
 
 POSCAR: Ru N  H  C  O
  positions in cartesian coordinates
  No initial velocities read in
 exchange correlation table for  LEXCH =        8
   RHO(1)=    0.500       N(1)  =     2000
   RHO(2)=  100.500       N(2)  =     4000
 


--------------------------------------------------------------------------------------------------------


 ion  position               nearest neighbor table
   1  0.155  0.078  0.375-  20 2.56  17 2.58  21 2.59   4 2.68   5 2.70  16 2.70  13 2.72   6 2.72
                             2 2.74
   2  0.156  0.331  0.376-  18 2.57  17 2.58  22 2.58   7 2.70   3 2.70  14 2.71   6 2.72  13 2.73
                             1 2.74
   3  0.156  0.580  0.375-  18 2.58  23 2.59  19 2.59   7 2.69   2 2.70   8 2.70  14 2.72   4 2.72
                            15 2.74
   4  0.154  0.830  0.375-  20 2.58  24 2.59  19 2.60  16 2.67   1 2.68  15 2.70   3 2.72   5 2.72
                             8 2.74
   5  0.405  0.080  0.375-  24 2.59  21 2.59  25 2.60  10 2.69   6 2.69   9 2.70   1 2.70   4 2.72
                             8 2.73
   6  0.406  0.329  0.376-  26 2.56  21 2.58  22 2.60  10 2.67   5 2.69  11 2.70   2 2.72   1 2.72
                             7 2.73
   7  0.405  0.581  0.376-  27 2.57  23 2.57  22 2.59   8 2.68  12 2.68   3 2.69   2 2.70  11 2.72
                             6 2.73
   8  0.406  0.829  0.375-  28 2.59  23 2.59  24 2.59  12 2.67   7 2.68   9 2.69   3 2.70   5 2.73
                             4 2.74
   9  0.653  0.078  0.376-  29 2.57  28 2.58  25 2.59   8 2.69   5 2.70  12 2.70  13 2.71  10 2.73
                            14 2.73
  10  0.653  0.330  0.376-  26 2.55  25 2.57  30 2.58   6 2.67  11 2.69   5 2.69  15 2.73   9 2.73
                            14 2.74
  11  0.655  0.579  0.376-  26 2.56  27 2.56  31 2.57  10 2.69  15 2.69   6 2.70  16 2.71  12 2.72
                             7 2.72
  12  0.652  0.828  0.376-  27 2.56  28 2.57  32 2.58   8 2.67   7 2.68   9 2.70  11 2.72  13 2.73
                            16 2.75
  13  0.904  0.079  0.376-  29 2.55  17 2.56  32 2.57  14 2.70   9 2.71   1 2.72  12 2.73   2 2.73
                            16 2.73
  14  0.905  0.330  0.376-  18 2.55  29 2.55  30 2.58  13 2.70   2 2.71   3 2.72  15 2.73   9 2.73
                            10 2.74
  15  0.904  0.581  0.376-  31 2.58  19 2.58  30 2.60  16 2.67  11 2.69   4 2.70  10 2.73  14 2.73
                             3 2.74
  16  0.906  0.828  0.376-  20 2.57  31 2.59  32 2.60  15 2.67   4 2.67   1 2.70  11 2.71  13 2.73
                            12 2.75
  17  0.071  0.162  0.455-  13 2.56   2 2.58   1 2.58  34 2.69  33 2.69  45 2.69  20 2.70  29 2.71
                            21 2.71  18 2.71  32 2.71  22 2.72
  18  0.071  0.412  0.455-  14 2.55   2 2.57   3 2.58  46 2.69  34 2.70  29 2.70  35 2.70  19 2.70
                            17 2.71  30 2.71  22 2.72  23 2.72
  19  0.070  0.662  0.456-  15 2.58   3 2.59   4 2.60  47 2.68  36 2.69  35 2.69  30 2.70  31 2.70
                            18 2.70  20 2.72  24 2.72  23 2.73
  20  0.072  0.914  0.455-   1 2.56  16 2.57   4 2.58  33 2.68  48 2.69  36 2.69  17 2.70  21 2.71
                            24 2.71  32 2.72  19 2.72  31 2.73
  21  0.322  0.164  0.456-   6 2.58   1 2.59   5 2.59  33 2.68  37 2.69  38 2.69  26 2.70  22 2.70
                            20 2.71  17 2.71  25 2.71  24 2.71
  22  0.322  0.413  0.456-   2 2.58   7 2.59   6 2.60  39 2.68  34 2.68  38 2.69  23 2.70  26 2.70
                            27 2.70  21 2.70  17 2.72  18 2.72
  23  0.322  0.662  0.456-   7 2.57   3 2.59   8 2.59  39 2.68  35 2.68  40 2.69  27 2.69  22 2.70
                            28 2.70  24 2.72  18 2.72  19 2.73
  24  0.321  0.913  0.456-   5 2.59   8 2.59   4 2.59  36 2.68  37 2.68  40 2.70  20 2.71  21 2.71
                            23 2.72  28 2.72  19 2.72  25 2.72
  25  0.573  0.164  0.456-  10 2.57   9 2.59   5 2.60  42 2.68  37 2.69  41 2.69  30 2.69  26 2.70
                            29 2.70  21 2.71  24 2.72  28 2.73
  26  0.571  0.412  0.455-  10 2.55  11 2.56   6 2.56  25 2.70  21 2.70  22 2.70  31 2.70  43 2.70
                            30 2.70  27 2.71  38 2.71  42 2.71
  27  0.571  0.663  0.455-  12 2.56  11 2.56   7 2.57  23 2.69  28 2.70  22 2.70  32 2.70  43 2.71
                            31 2.71  44 2.71  26 2.71  39 2.72
  28  0.572  0.912  0.456-  12 2.57   9 2.58   8 2.59  44 2.67  41 2.68  32 2.69  40 2.69  27 2.70
                            23 2.70  29 2.71  24 2.72  25 2.73
  29  0.821  0.163  0.455-  13 2.55  14 2.55   9 2.57  46 2.70  18 2.70  45 2.70  25 2.70  17 2.71
                            28 2.71  32 2.71  41 2.71  30 2.71
  30  0.821  0.413  0.456-  14 2.58  10 2.58  15 2.60  47 2.68  46 2.69  25 2.69  31 2.69  42 2.70
                            19 2.70  26 2.70  18 2.71  29 2.71
  31  0.821  0.661  0.456-  11 2.57  15 2.58  16 2.59  43 2.67  47 2.68  48 2.68  30 2.69  26 2.70
                            19 2.70  27 2.71  32 2.72  20 2.73
  32  0.820  0.912  0.456-  13 2.57  12 2.58  16 2.60  48 2.68  44 2.68  45 2.69  28 2.69  27 2.70
                            29 2.71  17 2.71  31 2.72  20 2.72
  33  0.155  0.079  0.541-  53 2.56  52 2.56  49 2.56  21 2.68  20 2.68  17 2.69  38 2.70  37 2.70
                            48 2.70  36 2.70  34 2.71  45 2.71
  34  0.154  0.329  0.541-  54 2.54  49 2.57  50 2.57  22 2.68  17 2.69  18 2.70  39 2.70  45 2.70
                            33 2.71  46 2.71  38 2.71  35 2.71
  35  0.155  0.580  0.541-  55 2.56  51 2.57  50 2.57  23 2.68  39 2.68  19 2.69  40 2.70  18 2.70
                            47 2.71  36 2.71  34 2.71  46 2.72
  36  0.156  0.830  0.541-  56 2.57  52 2.58  51 2.58  24 2.68  19 2.69  20 2.69  37 2.69  40 2.70
                            33 2.70  35 2.71  47 2.71  48 2.71
  37  0.404  0.079  0.541-  56 2.57  53 2.58  57 2.58  24 2.68  21 2.69  25 2.69  36 2.69  42 2.70
                            33 2.70  38 2.71  41 2.71  40 2.71
  38  0.404  0.329  0.542-  54 2.55  53 2.57  58 2.65  22 2.69  21 2.69  33 2.70  42 2.71  37 2.71
                            34 2.71  26 2.71  39 2.71  43 2.72
  39  0.403  0.578  0.542-  55 2.57  54 2.57  59 2.60  22 2.68  23 2.68  35 2.68  34 2.70  40 2.70
                            38 2.71  27 2.72  44 2.73  43 2.73
  40  0.405  0.829  0.541-  56 2.56  60 2.56  55 2.57  23 2.69  28 2.69  36 2.70  24 2.70  35 2.70
                            44 2.70  41 2.70  39 2.70  37 2.71
  41  0.654  0.079  0.541-  60 2.55  57 2.56  61 2.56  28 2.68  25 2.69  44 2.69  40 2.70  42 2.70
                            37 2.71  45 2.71  46 2.71  29 2.71
  42  0.654  0.328  0.542-  62 2.57  57 2.57  58 2.64  25 2.68  30 2.70  37 2.70  41 2.70  38 2.71
                            46 2.71  43 2.71  26 2.71  47 2.72
  43  0.655  0.579  0.541-  63 2.56  59 2.59  58 2.65  31 2.67  26 2.70  27 2.71  47 2.71  42 2.71
                            48 2.71  38 2.72  44 2.72  39 2.73
  44  0.655  0.831  0.541-  60 2.58  64 2.58  59 2.59  28 2.67  32 2.68  41 2.69  45 2.70  40 2.70
                            27 2.71  48 2.72  43 2.72  39 2.73
  45  0.905  0.079  0.541-  64 2.56  49 2.57  61 2.57  32 2.69  17 2.69  44 2.70  46 2.70  29 2.70
                            48 2.70  34 2.70  41 2.71  33 2.71
  46  0.904  0.329  0.541-  62 2.56  50 2.56  61 2.56  30 2.69  18 2.69  29 2.70  45 2.70  34 2.71
                            41 2.71  42 2.71  47 2.71  35 2.72
  47  0.906  0.580  0.541-  63 2.54  51 2.57  62 2.57  19 2.68  31 2.68  30 2.68  35 2.71  43 2.71
                            36 2.71  46 2.71  48 2.72  42 2.72
  48  0.905  0.830  0.541-  63 2.54  64 2.57  52 2.57  32 2.68  31 2.68  20 2.69  33 2.70  45 2.70
                            43 2.71  36 2.71  47 2.72  44 2.72
  49  0.072  0.161  0.620-  33 2.56  34 2.57  45 2.57  54 2.67  64 2.68  53 2.68  52 2.68  50 2.72
                            61 2.73
  50  0.070  0.412  0.620-  46 2.56  35 2.57  34 2.57  62 2.68  54 2.69  51 2.70  61 2.70  55 2.70
                            49 2.72
  51  0.072  0.663  0.621-  35 2.57  47 2.57  36 2.58  55 2.68  63 2.69  50 2.70  56 2.71  62 2.71
                            52 2.73
  52  0.072  0.914  0.620-  33 2.56  48 2.57  36 2.58  53 2.67  49 2.68  64 2.68  63 2.68  56 2.71
                            51 2.73
  53  0.319  0.161  0.621-  33 2.56  38 2.57  37 2.58  52 2.67  49 2.68  54 2.70  56 2.70  58 2.74
                            57 2.74
  54  0.317  0.409  0.620-  34 2.54  38 2.55  39 2.57  49 2.67  50 2.69  53 2.70  55 2.73  58 2.75
                            59 2.75
  55  0.319  0.662  0.621-  35 2.56  40 2.57  39 2.57  51 2.68  56 2.70  50 2.70  59 2.73  54 2.73
                            60 2.74
  56  0.322  0.913  0.621-  40 2.56  37 2.57  36 2.57  60 2.69  57 2.69  53 2.70  55 2.70  51 2.71
                            52 2.71
  57  0.571  0.160  0.621-  41 2.56  42 2.57  37 2.58  60 2.65  61 2.68  56 2.69  62 2.72  58 2.73
                            53 2.74
  58  0.572  0.412  0.625-  77 2.16  42 2.64  38 2.65  43 2.65  62 2.72  59 2.72  57 2.73  53 2.74
                            63 2.74  54 2.75
  59  0.571  0.663  0.622-  65 2.21  43 2.59  44 2.59  39 2.60  58 2.72  55 2.73  64 2.73  63 2.73
                            60 2.74  54 2.75
  60  0.571  0.916  0.621-  41 2.55  40 2.56  44 2.58  57 2.65  56 2.69  61 2.69  55 2.74  59 2.74
                            64 2.75
  61  0.821  0.163  0.621-  46 2.56  41 2.56  45 2.57  62 2.68  57 2.68  60 2.69  50 2.70  64 2.71
                            49 2.73
  62  0.823  0.412  0.621-  46 2.56  42 2.57  47 2.57  50 2.68  61 2.68  51 2.71  58 2.72  57 2.72
                            63 2.74
  63  0.825  0.665  0.619-  48 2.54  47 2.54  43 2.56  52 2.68  51 2.69  64 2.70  59 2.73  62 2.74
                            58 2.74
  64  0.824  0.914  0.621-  45 2.56  48 2.57  44 2.58  49 2.68  52 2.68  63 2.70  61 2.71  59 2.73
                            60 2.75
  65  0.538  0.655  0.707-  66 1.03  67 1.03  73 1.57  59 2.21
  66  0.525  0.738  0.720-  65 1.03
  67  0.441  0.570  0.718-  65 1.03
  68  0.747  0.749  0.743-  73 1.09
  69  0.566  0.688  0.818-  74 1.11
  70  0.499  0.503  0.804-  74 1.10
  71  0.676  0.608  0.825-  74 1.10
  72  0.810  0.479  0.717-  76 0.99
  73  0.648  0.647  0.745-  68 1.09  75 1.48  74 1.52  65 1.57
  74  0.593  0.611  0.801-  70 1.10  71 1.10  69 1.11  73 1.52
  75  0.672  0.530  0.728-  77 1.26  76 1.35  73 1.48
  76  0.805  0.555  0.737-  72 0.99  75 1.35
  77  0.580  0.412  0.709-  75 1.26  58 2.16
 

IMPORTANT INFORMATION: All symmetrisations will be switched off!
NOSYMM: (Re-)initialisation of all symmetry stuff for point group C_1.


----------------------------------------------------------------------------------------

                                     Primitive cell                                     

  volume of cell :    2601.8223

  direct lattice vectors                    reciprocal lattice vectors
    10.831299782  0.000000000  0.000000000     0.092325023  0.053303877  0.000000000
    -5.415649891  9.380180767  0.000000000     0.000000000  0.106607754  0.000000000
     0.000000000  0.000000000 25.608600616     0.000000000  0.000000000  0.039049381

  length of vectors
    10.831299782 10.831299782 25.608600616     0.106607754  0.106607754  0.039049381

  position of ions in fractional coordinates (direct lattice)
     0.154981662  0.077909062  0.375440633
     0.156253191  0.331267295  0.375831117
     0.156307534  0.580188555  0.375454794
     0.153501762  0.829786664  0.375055396
     0.405273699  0.080271109  0.375250411
     0.406260187  0.329471566  0.375603307
     0.404671872  0.580533482  0.375689594
     0.406056136  0.828646612  0.375325304
     0.652924628  0.077709304  0.375581817
     0.652722584  0.329601969  0.375933401
     0.654729714  0.578781735  0.376141020
     0.652308479  0.828322410  0.375742207
     0.904435702  0.079428952  0.376231920
     0.905310164  0.329597440  0.376296097
     0.904292135  0.581209521  0.375536648
     0.905802681  0.828071863  0.375502968
     0.071154901  0.162410811  0.455204940
     0.070507057  0.412098569  0.455325037
     0.070348540  0.661716611  0.455818999
     0.071895500  0.913573773  0.455409269
     0.321659858  0.163529982  0.455852680
     0.322157589  0.413221936  0.456304793
     0.322370484  0.662480747  0.456023658
     0.321452276  0.912789935  0.455568588
     0.572522350  0.164344395  0.456064563
     0.570961799  0.412447795  0.455173481
     0.571185926  0.662706759  0.455156125
     0.572145452  0.912160447  0.456022895
     0.821429621  0.162767451  0.454871287
     0.820727377  0.412799412  0.455946806
     0.820518734  0.661413848  0.456219603
     0.820284249  0.912217423  0.455752765
     0.155160215  0.079352768  0.540753530
     0.154323232  0.328686640  0.540948303
     0.155442424  0.579795102  0.541057156
     0.155835705  0.829980055  0.540641889
     0.404348126  0.078908375  0.540946202
     0.404309507  0.328754502  0.541747475
     0.402555724  0.578392288  0.541522185
     0.404605288  0.829098792  0.541458435
     0.654124336  0.078622763  0.541218988
     0.653834832  0.328147323  0.541680134
     0.655366632  0.579338537  0.541198872
     0.654751286  0.830543917  0.541250571
     0.904518635  0.079273209  0.540920752
     0.904400458  0.328618563  0.540996846
     0.905519201  0.579560519  0.541141979
     0.905374298  0.830247451  0.540757064
     0.071787608  0.161489524  0.620281256
     0.070242747  0.412256190  0.620439291
     0.072363889  0.662524930  0.620706482
     0.071826970  0.914148505  0.620359758
     0.318623410  0.160587799  0.620768692
     0.316951884  0.408816360  0.620408063
     0.319382500  0.662497040  0.620928355
     0.321754332  0.912947391  0.620658117
     0.571493258  0.160038419  0.620896118
     0.572493907  0.412306298  0.624849607
     0.571484452  0.662907540  0.621836539
     0.571328487  0.915569877  0.620794869
     0.820624209  0.162923537  0.620519277
     0.822906756  0.411719096  0.620535187
     0.825067095  0.665365776  0.619474203
     0.824299767  0.914463152  0.620553953
     0.537921632  0.655179587  0.707255671
     0.525043457  0.737960796  0.720382398
     0.440652338  0.569572618  0.718049199
     0.746880347  0.748995208  0.742616158
     0.566471125  0.688456461  0.817685772
     0.498935764  0.503391407  0.803779787
     0.675654660  0.607930544  0.824988104
     0.809521641  0.478845124  0.716874295
     0.648088602  0.647228872  0.744759019
     0.593050993  0.610597633  0.800636753
     0.671950783  0.530118573  0.728357766
     0.804984729  0.554663252  0.736981951
     0.580493750  0.411758676  0.709230069

  ion indices of the primitive-cell ions
   primitive index   ion index
                 1           1
                 2           2
                 3           3
                 4           4
                 5           5
                 6           6
                 7           7
                 8           8
                 9           9
                10          10
                11          11
                12          12
                13          13
                14          14
                15          15
                16          16
                17          17
                18          18
                19          19
                20          20
                21          21
                22          22
                23          23
                24          24
                25          25
                26          26
                27          27
                28          28
                29          29
                30          30
                31          31
                32          32
                33          33
                34          34
                35          35
                36          36
                37          37
                38          38
                39          39
                40          40
                41          41
                42          42
                43          43
                44          44
                45          45
                46          46
                47          47
                48          48
                49          49
                50          50
                51          51
                52          52
                53          53
                54          54
                55          55
                56          56
                57          57
                58          58
                59          59
                60          60
                61          61
                62          62
                63          63
                64          64
                65          65
                66          66
                67          67
                68          68
                69          69
                70          70
                71          71
                72          72
                73          73
                74          74
                75          75
                76          76
                77          77

----------------------------------------------------------------------------------------

 
 
 KPOINTS: K-Spacing Value to Generate K-Mesh: 0.00

Automatic generation of k-mesh.
 Grid dimensions read from file:
 generate k-points for:    1    1    1

 Generating k-lattice:

  Cartesian coordinates                     Fractional coordinates (reciprocal lattice)
     0.092325023  0.053303877  0.000000000     1.000000000  0.000000000  0.000000000
     0.000000000  0.106607754  0.000000000     0.000000000  1.000000000  0.000000000
     0.000000000  0.000000000  0.039049381     0.000000000  0.000000000  1.000000000

  Length of vectors
     0.106607754  0.106607754  0.039049381

  Shift w.r.t. Gamma in fractional coordinates (k-lattice)
     0.000000000  0.000000000  0.000000000

 
 Subroutine IBZKPT returns following result:
 ===========================================
 
 Found      1 irreducible k-points:
 
 Following reciprocal coordinates:
            Coordinates               Weight
  0.000000  0.000000  0.000000      1.000000
 
 Following cartesian coordinates:
            Coordinates               Weight
  0.000000  0.000000  0.000000      1.000000
 


--------------------------------------------------------------------------------------------------------




 Dimension of arrays:
   k-points           NKPTS =      1   k-points in BZ     NKDIM =      1   number of bands    NBANDS=    560
   number of dos      NEDOS =    301   number of ions     NIONS =     77
   non local maximal  LDIM  =      6   non local SUM 2l+1 LMDIM =     18
   total plane-waves  NPLWV = 504000
   max r-space proj   IRMAX =   2429   max aug-charges    IRDMAX=   9123
   dimension x,y,z NGX =    60 NGY =   60 NGZ =  140
   dimension x,y,z NGXF=   120 NGYF=  120 NGZF=  280
   support grid    NGXF=   120 NGYF=  120 NGZF=  280
   ions per type =              64   1   7   3   2
   NGX,Y,Z   is equivalent  to a cutoff of   9.21,  9.21,  9.09 a.u.
   NGXF,Y,Z  is equivalent  to a cutoff of  18.42, 18.42, 18.18 a.u.

 SYSTEM =  Bulk                                    
 POSCAR =  Ru N  H  C  O                           

 Startparameter for this run:
   NWRITE =      2    write-flag & timer
   PREC   = normal    normal or accurate (medium, high low for compatibility)
   ISTART =      0    job   : 0-new  1-cont  2-samecut
   ICHARG =      1    charge: 1-file 2-atom 10-const
   ISPIN  =      1    spin polarized calculation?
   LNONCOLLINEAR =      F non collinear calculations
   LSORBIT =      F    spin-orbit coupling
   INIWAV =      1    electr: 0-lowe 1-rand  2-diag
   LASPH  =      F    aspherical Exc in radial PAW
 Electronic Relaxation 1
   ENCUT  =  500.0 eV  36.75 Ry    6.06 a.u.  19.75 19.75 46.69*2*pi/ulx,y,z
   ENINI  =  500.0     initial cutoff
   ENAUG  =  644.9 eV  augmentation charge cutoff
   NELM   =    150;   NELMIN=  6; NELMDL=  0     # of ELM steps 
   EDIFF  = 0.1E-04   stopping-criterion for ELM
   LREAL  =      T    real-space projection
   NLSPLINE    = F    spline interpolate recip. space projectors
   LCOMPAT=      F    compatible to vasp.4.4
   GGA_COMPAT  = T    GGA compatible to vasp.4.4-vasp.4.6
   LMAXPAW     = -100 max onsite density
   LMAXMIX     =    2 max onsite mixed and CHGCAR
   VOSKOWN=      0    Vosko Wilk Nusair interpolation
   ROPT   =   -0.00050  -0.00050  -0.00050  -0.00050
   ROPT   =   -0.00050
 Ionic relaxation
   EDIFFG = -.2E-01   stopping-criterion for IOM
   NSW    =      3    number of steps for IOM
   NBLOCK =      1;   KBLOCK =      3    inner block; outer block 
   IBRION =      2    ionic relax: 0-MD 1-quasi-New 2-CG
   NFREE  =      1    steps in history (QN), initial steepest desc. (CG)
   ISIF   =      2    stress and relaxation
   IWAVPR =     11    prediction:  0-non 1-charg 2-wave 3-comb
   ISYM   =      0    0-nonsym 1-usesym 2-fastsym
   LCORR  =      T    Harris-Foulkes like correction to forces

   POTIM  = 0.2000    time-step for ionic-motion
   TEIN   =    0.0    initial temperature
   TEBEG  =    0.0;   TEEND  =   0.0 temperature during run
   SMASS  =  -3.00    Nose mass-parameter (am)
   estimated Nose-frequenzy (Omega)   =  0.10E-29 period in steps = 0.31E+47 mass=  -0.268E-26a.u.
   SCALEE = 1.0000    scale energy and forces
   NPACO  =    256;   APACO  = 10.0  distance and # of slots for P.C.
   PSTRESS=    0.0 pullay stress

  Mass of Ions in am
   POMASS = 101.07 14.00  1.00 12.01 16.00
  Ionic Valenz
   ZVAL   =  14.00  5.00  1.00  4.00  6.00
  Atomic Wigner-Seitz radii
   RWIGS  =  -1.00 -1.00 -1.00 -1.00 -1.00
  virtual crystal weights 
   VCA    =   1.00  1.00  1.00  1.00  1.00
   NELECT =     932.0000    total number of electrons
   NUPDOWN=      -1.0000    fix difference up-down

 DOS related values:
   EMIN   =  10.00;   EMAX   =-10.00  energy-range for DOS
   EFERMI =   0.00;   METHOD = LEGACY      
   ISMEAR =     1;   SIGMA  =   0.10  broadening in eV -4-tet -1-fermi 0-gaus

 Electronic relaxation 2 (details)
   IALGO  =     38    algorithm
   LDIAG  =      T    sub-space diagonalisation (order eigenvalues)
   LSUBROT=      F    optimize rotation matrix (better conditioning)
   TURBO    =      0    0=normal 1=particle mesh
   IRESTART =      0    0=no restart 2=restart with 2 vectors
   NREBOOT  =      0    no. of reboots
   NMIN     =      0    reboot dimension
   EREF     =   0.00    reference energy to select bands
   IMIX   =      4    mixing-type and parameters
     AMIX     =   0.40;   BMIX     =  1.00
     AMIX_MAG =   1.60;   BMIX_MAG =  1.00
     AMIN     =   0.10
     WC   =   100.;   INIMIX=   1;  MIXPRE=   1;  MAXMIX= -45

 Intra band minimization:
   WEIMIN = 0.0010     energy-eigenvalue tresh-hold
   EBREAK =  0.45E-08  absolut break condition
   DEPER  =   0.30     relativ break condition  

   TIME   =   0.40     timestep for ELM

  volume/ion in A,a.u.               =      33.79       228.03
  Fermi-wavevector in a.u.,A,eV,Ry     =   1.162664  2.197117 18.392189  1.351788
  Thomas-Fermi vector in A             =   2.299223
 
 Write flags
   LWAVE        =      T    write WAVECAR
   LDOWNSAMPLE  =      F    k-point downsampling of WAVECAR
   LCHARG       =      T    write CHGCAR
   LVTOT        =      F    write LOCPOT, total local potential
   LVHAR        =      F    write LOCPOT, Hartree potential only
   LELF         =      F    write electronic localiz. function (ELF)
   LORBIT       =      0    0 simple, 1 ext, 2 COOP (PROOUT), +10 PAW based schemes


 Dipole corrections
   LMONO  =      F    monopole corrections only (constant potential shift)
   LDIPOL =      F    correct potential (dipole corrections)
   IDIPOL =      0    1-x, 2-y, 3-z, 4-all directions 
   EPSILON=  1.0000000 bulk dielectric constant

 Exchange correlation treatment:
   GGA     =    --    GGA type
   LEXCH   =     8    internal setting for exchange type
   LIBXC   =     F    Libxc                    
   VOSKOWN =     0    Vosko Wilk Nusair interpolation
   LHFCALC =     F    Hartree Fock is set to
   LHFONE  =     F    Hartree Fock one center treatment
   AEXX    =    0.0000 exact exchange contribution

 Linear response parameters
   LEPSILON=     F    determine dielectric tensor
   LRPA    =     F    only Hartree local field effects (RPA)
   LNABLA  =     F    use nabla operator in PAW spheres
   LVEL    =     F    velocity operator in full k-point grid
   CSHIFT  =0.1000    complex shift for real part using Kramers Kronig
   OMEGAMAX=  -1.0    maximum frequency
   DEG_THRESHOLD= 0.2000000E-02 threshold for treating states as degnerate
   RTIME   =   -0.100 relaxation time in fs
  (WPLASMAI=    0.000 imaginary part of plasma frequency in eV, 0.658/RTIME)
   DFIELD  = 0.0000000 0.0000000 0.0000000 field for delta impulse in time
 
  Optional k-point grid parameters
   LKPOINTS_OPT  =     F    use optional k-point grid
   KPOINTS_OPT_MODE=     1    mode for optional k-point grid
 
 Orbital magnetization related:
   ORBITALMAG=     F  switch on orbital magnetization
   LCHIMAG   =     F  perturbation theory with respect to B field
   DQ        =  0.001000  dq finite difference perturbation B field
   LLRAUG    =     F  two centre corrections for induced B field
   LBONE     =     F  B-component reconstruction in AE one-centre
   LVGVCALC  =     T  calculate vGv susceptibility
   LVGVAPPL  =     F  apply vGv susceptibility instead of pGv for G=0

 Random number generation:
   RANDOM_GENERATOR = DEFAULT
   PCG_SEED         = not used


--------------------------------------------------------------------------------------------------------


 conjugate gradient relaxation of ions
   using selective dynamics as specified on POSCAR
   WARNING: If single coordinates had been selected the selection of coordinates
            is made according to the corresponding   d i r e c t   coordinates!
            Don't support selection of single cartesian coordinates -- sorry ...
  !
 charge density and potential will be updated during run
 non-spin polarized calculation
 Variant of blocked Davidson
 Davidson routine will perform the subspace rotation
 perform sub-space diagonalisation
    after iterative eigenvector-optimisation
 modified Broyden-mixing scheme, WC =      100.0
 initial mixing is a Kerker type mixing with AMIX =  0.4000 and BMIX =      1.0000
 Hartree-type preconditioning will be used
 using additional bands           94
 real space projection scheme for non local part
 use partial core corrections
 calculate Harris-corrections to forces 
   (improved forces if not selfconsistent)
 use gradient corrections 
 use of overlap-Matrix (Vanderbilt PP)
 Methfessel and Paxton  Order N= 1 SIGMA  =   0.10


--------------------------------------------------------------------------------------------------------


  energy-cutoff  :      500.00
  volume of cell :     2601.82
      direct lattice vectors                 reciprocal lattice vectors
    10.831299782  0.000000000  0.000000000     0.092325023  0.053303877  0.000000000
    -5.415649891  9.380180767  0.000000000     0.000000000  0.106607754  0.000000000
     0.000000000  0.000000000 25.608600616     0.000000000  0.000000000  0.039049381

  length of vectors
    10.831299782 10.831299782 25.608600616     0.106607754  0.106607754  0.039049381


 
 k-points in units of 2pi/SCALE and weight: K-Spacing Value to Generate K-Mesh: 0.00
   0.00000000  0.00000000  0.00000000       1.000
 
 k-points in reciprocal lattice and weights: K-Spacing Value to Generate K-Mesh: 0.00
   0.00000000  0.00000000  0.00000000       1.000
 
 position of ions in fractional coordinates (direct lattice) 
   0.15498166  0.07790906  0.37544063
   0.15625319  0.33126730  0.37583112
   0.15630753  0.58018855  0.37545479
   0.15350176  0.82978666  0.37505540
   0.40527370  0.08027111  0.37525041
   0.40626019  0.32947157  0.37560331
   0.40467187  0.58053348  0.37568959
   0.40605614  0.82864661  0.37532530
   0.65292463  0.07770930  0.37558182
   0.65272258  0.32960197  0.37593340
   0.65472971  0.57878174  0.37614102
   0.65230848  0.82832241  0.37574221
   0.90443570  0.07942895  0.37623192
   0.90531016  0.32959744  0.37629610
   0.90429213  0.58120952  0.37553665
   0.90580268  0.82807186  0.37550297
   0.07115490  0.16241081  0.45520494
   0.07050706  0.41209857  0.45532504
   0.07034854  0.66171661  0.45581900
   0.07189550  0.91357377  0.45540927
   0.32165986  0.16352998  0.45585268
   0.32215759  0.41322194  0.45630479
   0.32237048  0.66248075  0.45602366
   0.32145228  0.91278993  0.45556859
   0.57252235  0.16434440  0.45606456
   0.57096180  0.41244779  0.45517348
   0.57118593  0.66270676  0.45515612
   0.57214545  0.91216045  0.45602290
   0.82142962  0.16276745  0.45487129
   0.82072738  0.41279941  0.45594681
   0.82051873  0.66141385  0.45621960
   0.82028425  0.91221742  0.45575276
   0.15516022  0.07935277  0.54075353
   0.15432323  0.32868664  0.54094830
   0.15544242  0.57979510  0.54105716
   0.15583571  0.82998006  0.54064189
   0.40434813  0.07890837  0.54094620
   0.40430951  0.32875450  0.54174747
   0.40255572  0.57839229  0.54152219
   0.40460529  0.82909879  0.54145843
   0.65412434  0.07862276  0.54121899
   0.65383483  0.32814732  0.54168013
   0.65536663  0.57933854  0.54119887
   0.65475129  0.83054392  0.54125057
   0.90451863  0.07927321  0.54092075
   0.90440046  0.32861856  0.54099685
   0.90551920  0.57956052  0.54114198
   0.90537430  0.83024745  0.54075706
   0.07178761  0.16148952  0.62028126
   0.07024275  0.41225619  0.62043929
   0.07236389  0.66252493  0.62070648
   0.07182697  0.91414850  0.62035976
   0.31862341  0.16058780  0.62076869
   0.31695188  0.40881636  0.62040806
   0.31938250  0.66249704  0.62092835
   0.32175433  0.91294739  0.62065812
   0.57149326  0.16003842  0.62089612
   0.57249391  0.41230630  0.62484961
   0.57148445  0.66290754  0.62183654
   0.57132849  0.91556988  0.62079487
   0.82062421  0.16292354  0.62051928
   0.82290676  0.41171910  0.62053519
   0.82506709  0.66536578  0.61947420
   0.82429977  0.91446315  0.62055395
   0.53792163  0.65517959  0.70725567
   0.52504346  0.73796080  0.72038240
   0.44065234  0.56957262  0.71804920
   0.74688035  0.74899521  0.74261616
   0.56647113  0.68845646  0.81768577
   0.49893576  0.50339141  0.80377979
   0.67565466  0.60793054  0.82498810
   0.80952164  0.47884512  0.71687430
   0.64808860  0.64722887  0.74475902
   0.59305099  0.61059763  0.80063675
   0.67195078  0.53011857  0.72835777
   0.80498473  0.55466325  0.73698195
   0.58049375  0.41175868  0.70923007
 
 position of ions in cartesian coordinates  (Angst):
   1.25672463  0.73080109  9.61450922
  -0.10160254  3.10734711  9.62450898
  -1.44908433  5.44227352  9.61487188
  -2.83121046  7.78354891  9.60464383
   3.95492071  0.75295752  9.60963790
   2.61602322  3.09050285  9.61867508
   1.23915627  5.44550900  9.62088478
  -0.08954419  7.77285502  9.61155582
   6.65117600  0.72892732  9.61812476
   5.28482511  3.09172605  9.62712832
   3.95709457  5.42907730  9.63244516
   2.57944451  7.76981394  9.62223210
   9.36605483  0.74505792  9.63477298
   8.02070145  3.09168356  9.63641646
   6.64703192  5.45185037  9.61696804
   5.32647309  7.76746376  9.61610554
  -0.10886003  1.52344277 11.65716150
  -1.46809849  3.86555907 11.66023702
  -2.82165937  6.20702143 11.67288669
  -4.16887399  8.56948713 11.66239409
   2.59837322  1.53394079 11.67374922
   1.25152009  3.87609646 11.68532721
  -0.09607243  6.21418917 11.67812773
  -1.46160474  8.56213459 11.66647401
   5.31112950  1.54158014 11.67917525
   3.95058555  3.86883487 11.65635589
   2.59769821  6.21630920 11.65591141
   1.25713729  8.55622988 11.67810820
   8.01565895  1.52678811 11.64861712
   6.65396717  3.87213311 11.67615964
   5.30529855  6.20418145 11.68314561
   3.94449443  8.55676432 11.67119053
   1.25084000  0.74434331 13.84794118
  -0.10853057  3.08314010 13.85292903
  -1.45632379  5.43858287 13.85571661
  -2.80697816  7.78536295 13.84508221
   3.95227564  0.74017482 13.85287525
   2.59877820  3.08377665 13.87339472
   1.22783160  5.42542421 13.86762536
  -0.10770761  7.77709654 13.86599280
   6.65922342  0.73749573 13.85986090
   5.30475006  3.07808120 13.87167022
   3.96097777  5.43430020 13.85934576
   2.59387238  7.79065208 13.86066970
   9.36779655  0.74359703 13.85222350
   8.01614940  3.08250152 13.85417216
   6.66925306  5.43638243 13.85788881
   5.31005091  7.78787118 13.84803169
  -0.09701762  1.51480093 15.88453495
  -1.47181495  3.86703759 15.88858200
  -2.80420809  6.21460361 15.89542441
  -4.17272880  8.57487822 15.88654529
   2.58141838  1.50634259 15.89701750
   1.21899459  3.83477136 15.88778230
  -0.12852443  6.21434200 15.90110625
  -1.45918582  8.56361156 15.89418584
   5.32330275  1.50118930 15.90028070
   3.96794657  3.86750761 16.00152404
   2.59984427  6.21819256 15.92436358
   1.22982421  8.58821095 15.89768787
   8.00608998  1.52825223 15.89063033
   6.68342329  3.86199954 15.89103776
   5.33316095  6.24125126 15.86386746
   3.97582562  8.57782967 15.89151833
   2.27816720  6.14570296 18.11182802
   1.69036578  6.92220566 18.44798511
   1.68823169  5.34269412 18.38823517
   4.03338912  7.02571044 19.01736061
   2.40717942  6.45784605 20.93978835
   2.67793122  4.72190240 20.58367554
   4.02587919  5.70249840 21.12679086
   6.17491402  4.49165383 18.35814752
   3.51447696  6.07112382 19.07223627
   3.11673009  5.72751617 20.50318686
   4.40716378  4.97260804 18.65222314
   5.71516894  5.20284157 18.87307645
   4.05756099  3.86237082 18.16238959
 


--------------------------------------------------------------------------------------------------------


 use parallel FFT for orbitals z direction half grid
 k-point   1 :   0.0000 0.0000 0.0000  plane waves:   33011

 maximum and minimum number of plane-waves per node :      2544     2533

 maximum number of plane-waves:     33011
 maximum index in each direction: 
   IXMAX=   19   IYMAX=   19   IZMAX=   46
   IXMIN=  -19   IYMIN=  -19   IZMIN=    0


 real space projection operators:
  total allocation   :      21503.51 KBytes
  max/ min on nodes  :       1786.47       1511.62


 parallel 3D FFT for wavefunctions:
    minimum data exchange during FFTs selected (reduces bandwidth)
 parallel 3D FFT for charge:
    minimum data exchange during FFTs selected (reduces bandwidth)


 total amount of memory used by VASP MPI-rank0    51977. kBytes
=======================================================================

   base      :      30000. kBytes
   nonlr-proj:       2179. kBytes
   fftplans  :       4148. kBytes
   grid      :       9794. kBytes
   one-center:         46. kBytes
   wavefun   :       5810. kBytes
 
     INWAV:  cpu time      0.0000: real time      0.0000
 Broyden mixing: mesh for mixing (old mesh)
   NGX = 39   NGY = 39   NGZ = 93
  (NGX  =120   NGY  =120   NGZ  =280)
  gives a total of 141453 points

 initial charge density was supplied:
 charge density of overlapping atoms calculated
 number of electron     932.0000000 magnetization 
 keeping initial charge density in first step


--------------------------------------------------------------------------------------------------------


 Maximum index for non-local projection operator          296
 Maximum index for augmentation-charges          581 (set IRDMAX)


--------------------------------------------------------------------------------------------------------


 First call to EWALD:  gamma=   0.129
 Maximum number of real-space cells 4x 4x 2
 Maximum number of reciprocal cells 2x 2x 5

    FEWALD:  cpu time      0.0027: real time      0.0027


--------------------------------------- Ionic step        1  -------------------------------------------




--------------------------------------- Iteration      1(   1)  ---------------------------------------


    POTLOK:  cpu time      0.0531: real time      0.0916
    SETDIJ:  cpu time      0.0070: real time      0.0246
     EDDAV:  cpu time      2.3718: real time      2.6360
       DOS:  cpu time      0.0014: real time      0.0225
    --------------------------------------------
      LOOP:  cpu time      2.4331: real time      2.7747

 eigenvalue-minimisations  :  1376
 total energy-change (2. order) : 0.1259086E+05  (-0.6147511E+05)
 number of electron     932.0000000 magnetization 
 augmentation part      932.0000000 magnetization 

 Free energy of the ion-electron system (eV)
  ---------------------------------------------------
  alpha Z        PSCENC =      2884.52005167
  Ewald energy   TEWEN  =    596818.80712696
  -Hartree energ DENC   =   -709261.81690453
  -exchange      EXHF   =         0.00000000
  -V(xc)+E(xc)   XCENC  =      3840.63484795
  PAW double counting   =    101628.54558059  -100691.93083764
  entropy T*S    EENTRO =        -0.01124637
  eigenvalues    EBANDS =     -4187.88724212
  atomic energy  EATOM  =    121560.00167894
  Solvation  Ediel_sol  =         0.00000000
  ---------------------------------------------------
  free energy    TOTEN  =     12590.86305545 eV

  energy without entropy =    12590.87430182  energy(sigma->0) =    12590.86680424


--------------------------------------------------------------------------------------------------------




--------------------------------------- Iteration      1(   2)  ---------------------------------------


     EDDAV:  cpu time      2.0588: real time      2.0928
       DOS:  cpu time      0.0007: real time      0.0007
    --------------------------------------------
      LOOP:  cpu time      2.0595: real time      2.0935

 eigenvalue-minimisations  :  1200
 total energy-change (2. order) :-0.1267907E+05  (-0.1220374E+05)
 number of electron     932.0000000 magnetization 
 augmentation part      932.0000000 magnetization 

 Free energy of the ion-electron system (eV)
  ---------------------------------------------------
  alpha Z        PSCENC =      2884.52005167
  Ewald energy   TEWEN  =    596818.80712696
  -Hartree energ DENC   =   -709261.81690453
  -exchange      EXHF   =         0.00000000
  -V(xc)+E(xc)   XCENC  =      3840.63484795
  PAW double counting   =    101628.54558059  -100691.93083764
  entropy T*S    EENTRO =        -0.00258876
  eigenvalues    EBANDS =    -16866.96669284
  atomic energy  EATOM  =    121560.00167894
  Solvation  Ediel_sol  =         0.00000000
  ---------------------------------------------------
  free energy    TOTEN  =       -88.20773766 eV

  energy without entropy =      -88.20514891  energy(sigma->0) =      -88.20687474


--------------------------------------------------------------------------------------------------------




--------------------------------------- Iteration      1(   3)  ---------------------------------------


     EDDAV:  cpu time      3.2015: real time      3.2257
       DOS:  cpu time      0.0012: real time      0.0012
    --------------------------------------------
      LOOP:  cpu time      3.2027: real time      3.2269

 eigenvalue-minimisations  :  1360
 total energy-change (2. order) :-0.5695629E+03  (-0.5329371E+03)
 number of electron     932.0000000 magnetization 
 augmentation part      932.0000000 magnetization 

 Free energy of the ion-electron system (eV)
  ---------------------------------------------------
  alpha Z        PSCENC =      2884.52005167
  Ewald energy   TEWEN  =    596818.80712696
  -Hartree energ DENC   =   -709261.81690453
  -exchange      EXHF   =         0.00000000
  -V(xc)+E(xc)   XCENC  =      3840.63484795
  PAW double counting   =    101628.54558059  -100691.93083764
  entropy T*S    EENTRO =        -0.04543612
  eigenvalues    EBANDS =    -17436.48677771
  atomic energy  EATOM  =    121560.00167894
  Solvation  Ediel_sol  =         0.00000000
  ---------------------------------------------------
  free energy    TOTEN  =      -657.77066990 eV

  energy without entropy =     -657.72523378  energy(sigma->0) =     -657.75552453


--------------------------------------------------------------------------------------------------------




--------------------------------------- Iteration      1(   4)  ---------------------------------------


     EDDAV:  cpu time      2.3156: real time      2.3338
       DOS:  cpu time      0.0005: real time      0.0005
    --------------------------------------------
      LOOP:  cpu time      2.3161: real time      2.3343

 eigenvalue-minimisations  :  1408
 total energy-change (2. order) :-0.2845634E+02  (-0.2735724E+02)
 number of electron     932.0000000 magnetization 
 augmentation part      932.0000000 magnetization 

 Free energy of the ion-electron system (eV)
  ---------------------------------------------------
  alpha Z        PSCENC =      2884.52005167
  Ewald energy   TEWEN  =    596818.80712696
  -Hartree energ DENC   =   -709261.81690453
  -exchange      EXHF   =         0.00000000
  -V(xc)+E(xc)   XCENC  =      3840.63484795
  PAW double counting   =    101628.54558059  -100691.93083764
  entropy T*S    EENTRO =         0.00301032
  eigenvalues    EBANDS =    -17464.99155920
  atomic energy  EATOM  =    121560.00167894
  Solvation  Ediel_sol  =         0.00000000
  ---------------------------------------------------
  free energy    TOTEN  =      -686.22700495 eV

  energy without entropy =     -686.23001527  energy(sigma->0) =     -686.22800839


--------------------------------------------------------------------------------------------------------




--------------------------------------- Iteration      1(   5)  ---------------------------------------


     EDDAV:  cpu time      2.4271: real time      2.4466
       DOS:  cpu time      0.0008: real time      0.0008
    CHARGE:  cpu time      0.0693: real time      0.0697
    MIXING:  cpu time      0.0037: real time      0.0156
    --------------------------------------------
      LOOP:  cpu time      2.5009: real time      2.5327

 eigenvalue-minimisations  :  1504
 total energy-change (2. order) :-0.1100971E+01  (-0.1085910E+01)
 number of electron     931.9999785 magnetization 
 augmentation part      317.5629623 magnetization 

 Broyden mixing:
  rms(total) = 0.94325E+01    rms(broyden)= 0.94323E+01
  rms(prec ) = 0.95733E+01
  weight for this iteration     100.00

 Free energy of the ion-electron system (eV)
  ---------------------------------------------------
  alpha Z        PSCENC =      2884.52005167
  Ewald energy   TEWEN  =    596818.80712696
  -Hartree energ DENC   =   -709261.81690453
  -exchange      EXHF   =         0.00000000
  -V(xc)+E(xc)   XCENC  =      3840.63484795
  PAW double counting   =    101628.54558059  -100691.93083764
  entropy T*S    EENTRO =         0.00705934
  eigenvalues    EBANDS =    -17466.09657960
  atomic energy  EATOM  =    121560.00167894
  Solvation  Ediel_sol  =         0.00000000
  ---------------------------------------------------
  free energy    TOTEN  =      -687.32797633 eV

  energy without entropy =     -687.33503567  energy(sigma->0) =     -687.33032945


--------------------------------------------------------------------------------------------------------




--------------------------------------- Iteration      1(   6)  ---------------------------------------


    POTLOK:  cpu time      0.0543: real time      0.0550
    SETDIJ:  cpu time      0.0053: real time      0.0055
     EDDAV:  cpu time      2.1112: real time      2.1328
       DOS:  cpu time      0.0009: real time      0.0009
    CHARGE:  cpu time      0.0684: real time      0.0689
    MIXING:  cpu time      0.0028: real time      0.0052
    --------------------------------------------
      LOOP:  cpu time      2.2430: real time      2.2684

 eigenvalue-minimisations  :  1248
 total energy-change (2. order) : 0.3530418E+02  (-0.1479410E+02)
 number of electron     931.9999790 magnetization 
 augmentation part      328.4720115 magnetization 

 Broyden mixing:
  rms(total) = 0.39955E+01    rms(broyden)= 0.39955E+01
  rms(prec ) = 0.45073E+01
  weight for this iteration     100.00

 eigenvalues of (default mixing * dielectric matrix)
  average eigenvalue GAMMA=   1.2105
  1.2105

 Free energy of the ion-electron system (eV)
  ---------------------------------------------------
  alpha Z        PSCENC =      2884.52005167
  Ewald energy   TEWEN  =    596818.80712696
  -Hartree energ DENC   =   -709116.92803598
  -exchange      EXHF   =         0.00000000
  -V(xc)+E(xc)   XCENC  =      3794.50946619
  PAW double counting   =    108262.15403642  -107506.34503929
  entropy T*S    EENTRO =        -0.02920825
  eigenvalues    EBANDS =    -17348.71387051
  atomic energy  EATOM  =    121560.00167894
  Solvation  Ediel_sol  =         0.00000000
  ---------------------------------------------------
  free energy    TOTEN  =      -652.02379385 eV

  energy without entropy =     -651.99458560  energy(sigma->0) =     -652.01405776


--------------------------------------------------------------------------------------------------------




--------------------------------------- Iteration      1(   7)  ---------------------------------------


    POTLOK:  cpu time      0.0485: real time      0.0489
    SETDIJ:  cpu time      0.0052: real time      0.0052
     EDDAV:  cpu time      2.1740: real time      2.1911
       DOS:  cpu time      0.0007: real time      0.0007
    CHARGE:  cpu time      0.0681: real time      0.0685
    MIXING:  cpu time      0.0018: real time      0.0018
    --------------------------------------------
      LOOP:  cpu time      2.2983: real time      2.3163

 eigenvalue-minimisations  :  1312
 total energy-change (2. order) :-0.1992583E+03  (-0.2284626E+02)
 number of electron     931.9999755 magnetization 
 augmentation part      341.3546930 magnetization 

 Broyden mixing:
  rms(total) = 0.13651E+02    rms(broyden)= 0.13651E+02
  rms(prec ) = 0.17122E+02
  weight for this iteration     100.00

 eigenvalues of (default mixing * dielectric matrix)
  average eigenvalue GAMMA=   0.8367
  1.5124  0.1611

 Free energy of the ion-electron system (eV)
  ---------------------------------------------------
  alpha Z        PSCENC =      2884.52005167
  Ewald energy   TEWEN  =    596818.80712696
  -Hartree energ DENC   =   -708078.26986403
  -exchange      EXHF   =         0.00000000
  -V(xc)+E(xc)   XCENC  =      3786.00745360
  PAW double counting   =    111839.51163294  -111149.59464802
  entropy T*S    EENTRO =        -0.02492757
  eigenvalues    EBANDS =    -18512.24059024
  atomic energy  EATOM  =    121560.00167894
  Solvation  Ediel_sol  =         0.00000000
  ---------------------------------------------------
  free energy    TOTEN  =      -851.28208576 eV

  energy without entropy =     -851.25715819  energy(sigma->0) =     -851.27377657


--------------------------------------------------------------------------------------------------------




--------------------------------------- Iteration      1(   8)  ---------------------------------------


    POTLOK:  cpu time      0.0474: real time      0.0481
    SETDIJ:  cpu time      0.0053: real time      0.0053
     EDDAV:  cpu time      2.2858: real time      2.3040
       DOS:  cpu time      0.0015: real time      0.0015
    CHARGE:  cpu time      0.0681: real time      0.0685
    MIXING:  cpu time      0.0020: real time      0.0020
    --------------------------------------------
      LOOP:  cpu time      2.4101: real time      2.4293

 eigenvalue-minimisations  :  1392
 total energy-change (2. order) : 0.1362623E+03  (-0.1553286E+02)
 number of electron     931.9999808 magnetization 
 augmentation part      335.7503657 magnetization 

 Broyden mixing:
  rms(total) = 0.71980E+01    rms(broyden)= 0.71978E+01
  rms(prec ) = 0.11562E+02
  weight for this iteration     100.00

 eigenvalues of (default mixing * dielectric matrix)
  average eigenvalue GAMMA=   0.6264
  1.5385  0.1704  0.1704

 Free energy of the ion-electron system (eV)
  ---------------------------------------------------
  alpha Z        PSCENC =      2884.52005167
  Ewald energy   TEWEN  =    596818.80712696
  -Hartree energ DENC   =   -708857.96018987
  -exchange      EXHF   =         0.00000000
  -V(xc)+E(xc)   XCENC  =      3784.65137233
  PAW double counting   =    114666.71339433  -113995.89712058
  entropy T*S    EENTRO =         0.07115072
  eigenvalues    EBANDS =    -17575.92722189
  atomic energy  EATOM  =    121560.00167894
  Solvation  Ediel_sol  =         0.00000000
  ---------------------------------------------------
  free energy    TOTEN  =      -715.01975740 eV

  energy without entropy =     -715.09090812  energy(sigma->0) =     -715.04347431


--------------------------------------------------------------------------------------------------------




--------------------------------------- Iteration      1(   9)  ---------------------------------------


    POTLOK:  cpu time      0.0472: real time      0.0479
    SETDIJ:  cpu time      0.0052: real time      0.0053
     EDDAV:  cpu time      2.3421: real time      2.3602
       DOS:  cpu time      0.0018: real time      0.0018
    CHARGE:  cpu time      0.0679: real time      0.0683
    MIXING:  cpu time      0.0020: real time      0.0020
    --------------------------------------------
      LOOP:  cpu time      2.4661: real time      2.4855

 eigenvalue-minimisations  :  1424
 total energy-change (2. order) : 0.6554559E+02  (-0.8907705E+01)
 number of electron     931.9999786 magnetization 
 augmentation part      332.3706153 magnetization 

 Broyden mixing:
  rms(total) = 0.31938E+01    rms(broyden)= 0.31935E+01
  rms(prec ) = 0.49765E+01
  weight for this iteration     100.00

 eigenvalues of (default mixing * dielectric matrix)
  average eigenvalue GAMMA=   0.5727
  1.4888  0.4926  0.2254  0.0839

 Free energy of the ion-electron system (eV)
  ---------------------------------------------------
  alpha Z        PSCENC =      2884.52005167
  Ewald energy   TEWEN  =    596818.80712696
  -Hartree energ DENC   =   -709024.90299371
  -exchange      EXHF   =         0.00000000
  -V(xc)+E(xc)   XCENC  =      3784.55015010
  PAW double counting   =    115430.85648076  -114762.74163973
  entropy T*S    EENTRO =         0.10453939
  eigenvalues    EBANDS =    -17340.66955869
  atomic energy  EATOM  =    121560.00167894
  Solvation  Ediel_sol  =         0.00000000
  ---------------------------------------------------
  free energy    TOTEN  =      -649.47416430 eV

  energy without entropy =     -649.57870370  energy(sigma->0) =     -649.50901077


--------------------------------------------------------------------------------------------------------




--------------------------------------- Iteration      1(  10)  ---------------------------------------


    POTLOK:  cpu time      0.0479: real time      0.0700
    SETDIJ:  cpu time      0.0053: real time      0.0053
     EDDAV:  cpu time      2.1508: real time      2.1681
       DOS:  cpu time      0.0006: real time      0.0006
    CHARGE:  cpu time      0.0684: real time      0.0690
    MIXING:  cpu time      0.0022: real time      0.0022
    --------------------------------------------
      LOOP:  cpu time      2.2752: real time      2.3153

 eigenvalue-minimisations  :  1280
 total energy-change (2. order) : 0.1168238E+02  (-0.2237529E+01)
 number of electron     931.9999790 magnetization 
 augmentation part      330.7709991 magnetization 

 Broyden mixing:
  rms(total) = 0.10327E+01    rms(broyden)= 0.10325E+01
  rms(prec ) = 0.12557E+01
  weight for this iteration     100.00

 eigenvalues of (default mixing * dielectric matrix)
  average eigenvalue GAMMA=   0.5582
  1.5144  0.4847  0.4847  0.2236  0.0838

 Free energy of the ion-electron system (eV)
  ---------------------------------------------------
  alpha Z        PSCENC =      2884.52005167
  Ewald energy   TEWEN  =    596818.80712696
  -Hartree energ DENC   =   -709161.27853168
  -exchange      EXHF   =         0.00000000
  -V(xc)+E(xc)   XCENC  =      3783.54071290
  PAW double counting   =    116220.18174435  -115557.24114316
  entropy T*S    EENTRO =        -0.05767392
  eigenvalues    EBANDS =    -17186.26574621
  atomic energy  EATOM  =    121560.00167894
  Solvation  Ediel_sol  =         0.00000000
  ---------------------------------------------------
  free energy    TOTEN  =      -637.79178016 eV

  energy without entropy =     -637.73410624  energy(sigma->0) =     -637.77255552


--------------------------------------------------------------------------------------------------------




--------------------------------------- Iteration      1(  11)  ---------------------------------------


    POTLOK:  cpu time      0.0470: real time      0.0476
    SETDIJ:  cpu time      0.0054: real time      0.0054
     EDDAV:  cpu time      2.1271: real time      2.1436
       DOS:  cpu time      0.0009: real time      0.0009
    CHARGE:  cpu time      0.0684: real time      0.0689
    MIXING:  cpu time      0.0022: real time      0.0022
[...]
  external pressure =       -6.91 kB  Pullay stress =        0.00 kB


 VOLUME and BASIS-vectors are now :
 -----------------------------------------------------------------------------
  energy-cutoff  :      500.00
  volume of cell :     2601.82
      direct lattice vectors                 reciprocal lattice vectors
    10.831299782  0.000000000  0.000000000     0.092325023  0.053303877  0.000000000
    -5.415649891  9.380180767  0.000000000     0.000000000  0.106607754  0.000000000
     0.000000000  0.000000000 25.608600616     0.000000000  0.000000000  0.039049381

  length of vectors
    10.831299782 10.831299782 25.608600616     0.106607754  0.106607754  0.039049381


 FORCES acting on ions
    electron-ion (+dipol)            ewald-force                    non-local-force                 convergence-correction
 -----------------------------------------------------------------------------------------------
   0.135E+02 -.203E+02 0.574E+04   -.134E+02 0.200E+02 -.573E+04   -.567E-01 0.103E+00 -.443E+01   0.304E-01 0.836E-02 0.266E-01
   -.505E+01 0.160E+02 0.573E+04   0.483E+01 -.158E+02 -.572E+04   0.107E+00 -.448E-01 -.472E+01   0.448E-02 0.436E-01 0.397E-01
   0.196E+02 -.147E+01 0.573E+04   -.194E+02 0.135E+01 -.572E+04   -.515E-01 0.422E-01 -.437E+01   0.247E-01 0.171E-01 0.357E-01
   -.287E+02 0.671E+01 0.573E+04   0.281E+02 -.660E+01 -.573E+04   0.116E+00 -.838E-01 -.446E+01   0.424E-01 -.119E-01 0.138E-01
   -.415E+01 0.164E+02 0.573E+04   0.398E+01 -.160E+02 -.573E+04   0.588E-01 -.114E+00 -.471E+01   0.540E-01 0.339E-02 0.361E-01
   0.291E+02 0.191E+01 0.573E+04   -.288E+02 -.210E+01 -.573E+04   -.166E+00 0.152E-01 -.481E+01   0.218E-01 0.200E-01 0.351E-01
   -.599E+01 0.203E+02 0.573E+04   0.571E+01 -.201E+02 -.573E+04   0.211E-01 -.993E-01 -.465E+01   -.262E-03 0.356E-01 0.465E-01
   0.306E+02 -.111E+02 0.573E+04   -.302E+02 0.109E+02 -.572E+04   -.125E+00 0.102E+00 -.447E+01   0.357E-01 0.416E-02 0.453E-01
   -.255E+01 -.175E+02 0.573E+04   0.271E+01 0.173E+02 -.573E+04   -.124E+00 0.446E-01 -.449E+01   -.261E-01 -.149E-01 0.518E-01
   -.351E+02 0.532E+01 0.573E+04   0.348E+02 -.533E+01 -.573E+04   0.151E+00 -.151E-01 -.474E+01   0.156E-01 -.217E-01 0.285E-01
   0.569E+01 -.136E+02 0.572E+04   -.551E+01 0.134E+02 -.572E+04   -.466E-02 0.159E+00 -.458E+01   -.133E-01 0.153E-02 0.242E-01
   -.314E+02 -.110E+02 0.573E+04   0.309E+02 0.111E+02 -.573E+04   0.232E+00 -.327E-01 -.469E+01   -.477E-01 -.795E-02 0.392E-01
   -.739E+01 0.484E+01 0.573E+04   0.735E+01 -.471E+01 -.572E+04   0.868E-01 -.859E-01 -.482E+01   -.575E-01 -.117E-01 0.319E-01
   0.130E+02 -.479E+01 0.572E+04   -.128E+02 0.472E+01 -.572E+04   -.468E-01 0.337E-01 -.487E+01   -.402E-01 -.286E-02 0.325E-01
   -.207E+02 0.230E+02 0.573E+04   0.204E+02 -.226E+02 -.573E+04   0.848E-01 -.125E+00 -.473E+01   -.917E-02 -.301E-01 0.216E-01
   0.299E+02 -.140E+02 0.573E+04   -.293E+02 0.139E+02 -.572E+04   -.221E+00 0.807E-01 -.468E+01   -.295E-01 -.355E-01 0.233E-01
   -.265E+01 -.415E+01 0.206E+04   0.273E+01 0.409E+01 -.206E+04   0.574E-02 0.126E-01 0.439E+00   -.142E-01 0.313E-01 0.802E-01
   -.505E+01 -.504E+01 0.205E+04   0.507E+01 0.506E+01 -.205E+04   0.362E-01 0.392E-01 0.339E+00   0.137E-01 0.680E-02 0.574E-01
   -.159E+02 -.930E+01 0.205E+04   0.159E+02 0.933E+01 -.205E+04   0.263E-01 0.196E-01 0.235E+00   0.161E-01 -.223E-01 0.195E-01
   -.211E+01 0.320E+01 0.205E+04   0.218E+01 -.312E+01 -.205E+04   -.781E-01 -.687E-01 0.301E+00   0.114E-02 -.611E-02 0.443E-01
   0.294E+01 0.969E+01 0.204E+04   -.305E+01 -.974E+01 -.204E+04   0.233E-01 0.103E-01 0.201E+00   0.416E-01 0.260E-01 0.588E-01
   0.914E+01 0.110E+02 0.203E+04   -.913E+01 -.111E+02 -.203E+04   0.458E-03 -.391E-01 0.339E+00   -.260E-02 0.400E-01 0.722E-01
   0.234E+02 -.484E+01 0.203E+04   -.235E+02 0.479E+01 -.203E+04   -.723E-01 0.145E-01 0.220E+00   0.505E-01 0.113E-01 0.424E-01
   -.422E+01 0.336E+01 0.206E+04   0.410E+01 -.342E+01 -.206E+04   0.869E-01 0.182E-01 0.281E+00   0.710E-01 0.156E-01 0.180E-01
   -.366E+01 0.220E+02 0.203E+04   0.365E+01 -.220E+02 -.203E+04   -.102E-01 -.135E+00 0.316E+00   0.190E-01 -.180E-01 0.351E-01
   0.554E+01 0.940E+00 0.204E+04   -.548E+01 -.102E+01 -.204E+04   -.238E-01 0.323E-01 0.496E+00   0.714E-03 -.114E-01 0.481E-01
   -.476E+01 0.700E+00 0.204E+04   0.478E+01 -.666E+00 -.204E+04   0.210E-01 -.453E-01 0.597E+00   -.459E-01 0.171E-01 0.506E-01
   0.183E+02 -.147E+02 0.203E+04   -.182E+02 0.148E+02 -.203E+04   -.118E+00 0.199E-01 0.237E+00   -.755E-02 -.624E-02 0.420E-01
   0.433E+01 0.106E+01 0.206E+04   -.430E+01 -.109E+01 -.206E+04   -.498E-01 0.784E-02 0.351E+00   -.472E-01 -.181E-01 0.558E-01
   -.118E+02 0.483E+01 0.205E+04   0.118E+02 -.479E+01 -.205E+04   0.258E-01 0.800E-02 0.330E+00   -.129E-01 -.299E-01 0.245E-01
   -.209E+01 -.168E+02 0.203E+04   0.224E+01 0.168E+02 -.203E+04   -.440E-02 0.964E-01 0.290E+00   -.213E-01 -.204E-01 0.407E-01
   -.121E+02 -.234E+01 0.205E+04   0.121E+02 0.233E+01 -.205E+04   0.101E+00 -.322E-01 0.275E+00   -.645E-01 -.156E-01 0.553E-01
   0.335E+01 0.221E+01 -.158E+04   -.330E+01 -.223E+01 0.158E+04   -.700E-02 0.323E-01 -.333E+00   -.335E-02 0.565E-01 0.493E-01
   0.271E+02 0.164E+02 -.158E+04   -.271E+02 -.164E+02 0.159E+04   0.112E+00 0.298E-01 -.480E+00   0.296E-01 0.322E-01 0.603E-01
   0.508E+01 0.437E+01 -.158E+04   -.513E+01 -.424E+01 0.158E+04   -.225E-01 -.895E-01 -.412E+00   0.774E-01 -.271E-01 0.302E-01
   -.794E+01 -.739E+01 -.159E+04   0.800E+01 0.733E+01 0.159E+04   -.996E-01 -.365E-02 -.589E+00   0.245E-01 0.124E-01 0.113E-01
   0.398E+01 0.129E+02 -.159E+04   -.405E+01 -.128E+02 0.159E+04   0.138E-01 -.833E-01 -.589E+00   0.391E-01 0.340E-01 0.173E-01
   0.128E+01 0.178E+02 -.160E+04   -.888E+00 -.175E+02 0.160E+04   -.263E+00 -.184E+00 -.734E+00   -.327E-01 0.235E-01 0.478E-01
   0.868E+01 -.608E+01 -.159E+04   -.832E+01 0.618E+01 0.159E+04   -.169E+00 -.150E-01 -.732E+00   -.159E-02 -.384E-02 0.509E-01
   0.164E+02 -.708E+01 -.160E+04   -.165E+02 0.702E+01 0.160E+04   -.174E-01 0.639E-01 -.605E+00   0.753E-01 -.793E-02 0.249E-01
   -.842E+01 -.582E+01 -.158E+04   0.843E+01 0.583E+01 0.158E+04   -.185E-01 0.776E-01 -.393E+00   -.147E-02 -.252E-01 0.239E-01
   -.541E+00 0.225E+02 -.159E+04   0.337E+00 -.221E+02 0.159E+04   0.233E+00 -.838E-01 -.766E+00   -.363E-02 -.313E-01 0.156E-01
   0.149E+02 0.177E+01 -.155E+04   -.152E+02 -.188E+01 0.155E+04   0.312E+00 0.244E-01 -.775E+00   -.476E-01 0.730E-02 0.304E-01
   0.674E+01 -.103E+02 -.159E+04   -.656E+01 0.998E+01 0.159E+04   0.109E-01 0.199E+00 -.654E+00   -.408E-01 -.533E-02 0.375E-01
   0.726E+00 -.245E+02 -.159E+04   -.754E+00 0.244E+02 0.159E+04   0.526E-01 -.556E-02 -.414E+00   -.333E-01 0.558E-03 0.413E-01
   -.277E+02 0.165E+02 -.158E+04   0.275E+02 -.164E+02 0.158E+04   -.492E-01 0.569E-01 -.406E+00   0.577E-02 -.305E-01 0.279E-01
   -.282E+02 -.759E+01 -.156E+04   0.281E+02 0.737E+01 0.156E+04   0.406E-01 0.792E-01 -.529E+00   -.293E-01 -.323E-01 0.735E-02
   -.142E+02 -.245E+02 -.154E+04   0.141E+02 0.246E+02 0.155E+04   0.748E-01 -.587E-01 -.417E+00   -.591E-01 -.498E-02 0.332E-01
   0.489E+02 -.756E+01 -.537E+04   -.483E+02 0.735E+01 0.537E+04   -.274E+00 -.534E-01 0.424E+01   0.508E-02 0.471E-01 0.178E-01
   -.121E+02 0.449E+02 -.536E+04   0.120E+02 -.444E+02 0.535E+04   0.101E+00 -.122E+00 0.411E+01   0.628E-01 -.137E-01 0.217E-01
   -.591E+02 -.512E+02 -.533E+04   0.593E+02 0.508E+02 0.532E+04   -.170E+00 0.217E+00 0.451E+01   0.351E-01 -.310E-01 0.311E-01
   -.632E+02 -.352E+02 -.534E+04   0.628E+02 0.354E+02 0.534E+04   0.128E+00 -.101E+00 0.414E+01   -.290E-01 0.394E-01 0.349E-01
   0.840E+01 0.815E+02 -.533E+04   -.902E+01 -.819E+02 0.533E+04   0.316E+00 0.182E+00 0.495E+01   -.105E-01 0.478E-01 0.222E-01
   0.104E+03 0.659E+02 -.524E+04   -.105E+03 -.664E+02 0.524E+04   0.431E+00 0.369E+00 0.499E+01   -.140E-01 0.243E-01 0.103E-01
   0.771E+02 -.183E+02 -.531E+04   -.780E+02 0.183E+02 0.530E+04   0.371E+00 -.102E-01 0.433E+01   0.776E-01 -.273E-01 0.188E-01
   0.379E+02 0.503E+00 -.539E+04   -.374E+02 -.568E+00 0.538E+04   -.150E+00 0.452E-02 0.474E+01   0.673E-01 0.236E-01 0.267E-01
   0.699E+01 0.656E+02 -.532E+04   -.629E+01 -.664E+02 0.531E+04   -.363E+00 0.425E+00 0.503E+01   0.198E-01 -.205E-01 0.100E-01
   0.240E+02 0.142E+03 -.502E+04   -.239E+02 -.142E+03 0.501E+04   -.401E-01 0.116E+00 0.642E+01   -.455E-01 -.225E-02 0.170E-02
   0.778E+02 -.880E+02 -.500E+04   -.777E+02 0.883E+02 0.499E+04   -.172E+00 -.201E+00 0.395E+01   -.489E-01 0.103E-02 -.103E-01
   0.160E+02 -.380E+02 -.531E+04   -.167E+02 0.386E+02 0.531E+04   0.307E+00 -.337E+00 0.390E+01   0.150E-01 -.160E-01 0.981E-02
   -.652E+02 0.543E+01 -.537E+04   0.646E+02 -.536E+01 0.536E+04   0.240E+00 -.678E-01 0.424E+01   -.130E-01 -.241E-01 0.978E-02
   -.114E+03 0.575E+02 -.521E+04   0.115E+03 -.575E+02 0.520E+04   -.316E+00 -.112E+00 0.306E+01   0.390E-03 -.406E-01 0.184E-01
   -.998E+02 -.950E+02 -.507E+04   0.100E+03 0.957E+02 0.507E+04   0.318E-01 -.253E+00 0.545E+01   -.559E-01 -.233E-02 0.127E-01
   0.919E+01 -.122E+03 -.529E+04   -.856E+01 0.122E+03 0.528E+04   -.223E+00 -.130E-01 0.446E+01   -.505E-01 -.314E-02 0.109E-01
   0.156E+03 -.747E+02 -.213E+04   -.150E+03 0.759E+02 0.211E+04   -.583E+01 -.111E+01 0.184E+02   -.563E-02 -.220E-02 -.190E-01
   0.618E+02 -.678E+02 -.445E+03   -.656E+02 0.732E+02 0.447E+03   0.417E+01 -.539E+01 -.180E+01   -.104E-02 0.207E-03 -.457E-02
   0.739E+02 0.529E+02 -.442E+03   -.782E+02 -.588E+02 0.443E+03   0.434E+01 0.562E+01 -.147E+01   -.117E-02 -.696E-03 -.499E-02
   -.314E+02 -.805E+02 -.406E+03   0.340E+02 0.851E+02 0.406E+03   -.291E+01 -.486E+01 0.244E+00   -.811E-03 0.758E-03 -.348E-02
   0.446E+02 -.425E+02 -.343E+03   -.485E+02 0.465E+02 0.346E+03   0.367E+01 -.376E+01 -.227E+01   -.411E-03 0.139E-05 -.315E-02
   0.368E+02 0.572E+02 -.352E+03   -.391E+02 -.623E+02 0.353E+03   0.217E+01 0.510E+01 -.421E+00   -.256E-03 -.472E-03 -.337E-02
   -.416E+02 -.304E+01 -.349E+03   0.463E+02 0.304E+01 0.353E+03   -.465E+01 0.170E+00 -.320E+01   0.324E-03 -.426E-03 -.232E-02
   -.778E+02 0.584E+02 -.402E+03   0.817E+02 -.628E+02 0.399E+03   -.353E+01 0.483E+01 0.355E+01   -.188E-03 -.153E-02 -.604E-03
   0.201E+01 -.122E+03 -.164E+04   0.102E+01 0.124E+03 0.164E+04   -.242E+01 -.232E+01 -.254E+01   -.717E-02 -.978E-03 -.161E-01
   0.529E+02 -.125E+02 -.145E+04   -.534E+02 0.123E+02 0.145E+04   0.514E+00 -.128E+00 -.131E+01   -.219E-02 -.358E-03 -.127E-01
   -.949E+01 -.414E+02 -.170E+04   0.345E+01 0.477E+02 0.171E+04   0.511E+01 -.446E+01 -.737E+00   -.178E-02 -.538E-02 -.938E-02
   -.329E+03 -.783E+02 -.255E+04   0.357E+03 0.112E+03 0.258E+04   -.269E+02 -.337E+02 -.238E+02   -.796E-02 -.230E-02 -.378E-02
   0.732E+02 0.339E+03 -.260E+04   -.906E+02 -.387E+03 0.259E+04   0.167E+02 0.464E+02 0.997E+01   -.110E-01 -.101E-02 -.262E-02
 -----------------------------------------------------------------------------------------------
   0.926E+01 -.647E+01 0.855E+01   -.455E-12 -.739E-12 -.241E-10   -.913E+01 0.637E+01 -.107E+02   -.216E-01 -.168E-01 0.195E+01
 
 
 POSITION                                       TOTAL-FORCE (eV/Angst)
 -----------------------------------------------------------------------------------
      1.25672      0.73080      9.61451         0.106273     -0.248625     -0.023589
     -0.10160      3.10735      9.62451        -0.115522      0.159343     -0.042068
     -1.44908      5.44227      9.61487         0.258554     -0.062453      0.072743
     -2.83121      7.78355      9.60464        -0.440113      0.014199      0.012617
      3.95492      0.75296      9.60964        -0.057649      0.236709     -0.063092
      2.61602      3.09050      9.61868         0.127159     -0.157652     -0.084349
      1.23916      5.44551      9.62088        -0.264022      0.177591     -0.172217
     -0.08954      7.77286      9.61156         0.359033     -0.146427     -0.013399
      6.65118      0.72893      9.61812         0.011551     -0.132709      0.071039
      5.28483      3.09173      9.62713        -0.135891     -0.046443     -0.170919
      3.95709      5.42908      9.63245         0.163879     -0.067432     -0.055318
      2.57944      7.76981      9.62223        -0.302616      0.062495     -0.134721
      9.36605      0.74506      9.63477        -0.013371      0.036069     -0.110276
      8.02070      3.09168      9.63642         0.097393     -0.029824     -0.050664
      6.64703      5.45185      9.61697        -0.164811      0.208239     -0.096686
      5.32647      7.76746      9.61611         0.355148     -0.034903      0.002069
     -0.10886      1.52344     11.65716         0.073441     -0.011269      0.072228
     -1.46810      3.86556     11.66024         0.059341      0.071043      0.071508
     -2.82166      6.20702     11.67289        -0.000152      0.026733     -0.016165
     -4.16887      8.56949     11.66239        -0.009634      0.009116     -0.008762
      2.59837      1.53394     11.67375        -0.039915     -0.016000     -0.043846
      1.25152      3.87610     11.68533        -0.000612     -0.037810     -0.018246
     -0.09607      6.21419     11.67813        -0.119445     -0.018962     -0.043329
     -1.46160      8.56213     11.66647         0.033739     -0.016266     -0.074709
      5.31113      1.54158     11.67918        -0.008835     -0.078959     -0.000870
      3.95145      3.86660     11.66707         0.040585     -0.061899      0.281113
      2.59678      6.21595     11.66842        -0.006689      0.006708      0.365706
      1.25714      8.55623     11.67811        -0.042082      0.056239     -0.001398
      8.01566      1.52679     11.64862        -0.070668     -0.044526      0.088124
      6.65397      3.87213     11.67616        -0.030786      0.014793     -0.024999
      5.30530      6.20418     11.68315         0.117647      0.075603      0.000858
      3.94449      8.55676     11.67119         0.034212     -0.056315     -0.014806
      1.25150      0.74504     13.84661         0.035981      0.065746     -0.027884
     -0.10515      3.08564     13.85149         0.144484      0.065057     -0.041109
     -1.45651      5.43855     13.85254         0.004718      0.011323     -0.091709
     -2.80852      7.78351     13.83923        -0.016438     -0.049705     -0.134784
      3.95214      0.74188     13.84610        -0.027779      0.000293     -0.138041
      2.60437      3.08884     13.86602         0.096515      0.099887     -0.141272
      1.23544      5.42816     13.86117         0.187885      0.085069     -0.086444
     -0.10637      7.77602     13.85632        -0.025921     -0.005489     -0.251607
      6.65829      0.73805     13.85918        -0.012395      0.056965     -0.025048
      5.30238      3.08713     13.86690         0.023677      0.238932     -0.090716
      3.95801      5.42903     13.86260        -0.092706     -0.080426      0.190699
      2.59764      7.78721     13.85800         0.150998     -0.083120     -0.006610
      9.36722      0.74161     13.84528        -0.010113     -0.074123     -0.184880
      8.01099      3.08562     13.84874        -0.204715      0.086450     -0.180174
      6.66943      5.43093     13.84917         0.008842     -0.175137     -0.175491
      5.30752      7.78693     13.84392        -0.121526     -0.024192     -0.057322
     -0.09137      1.51067     15.88980         0.354485     -0.218223      0.131423
     -1.47100      3.87396     15.89055         0.040664      0.383221      0.089477
     -2.80180      6.21142     15.90035         0.084698     -0.188829      0.126416
     -4.17756      8.57744     15.88909        -0.319528      0.137033      0.124419
      2.57513      1.50107     15.90250        -0.318499     -0.180128      0.112629
      1.20921      3.83185     15.89274        -0.391379     -0.149650      0.123456
     -0.13807      6.21444     15.90403        -0.387701     -0.016678      0.023042
     -1.45292      8.56186     15.90971         0.343656     -0.035745      0.464336
      5.33021      1.49163     15.90474         0.347131     -0.355414      0.099435
      3.96778      3.86249     15.98053        -0.024624     -0.209303     -0.657509
      2.59278      6.22008     15.93126        -0.200316      0.065265      0.309139
      1.22059      8.59470     15.89516        -0.397970      0.263161     -0.073592
      7.99880      1.52815     15.89460        -0.405265     -0.014200      0.025821
      6.69380      3.85921     15.89181         0.402815     -0.136588      0.058502
      5.33799      6.25111     15.87312         0.191186      0.447752      0.205253
      3.98249      8.57954     15.89563         0.358172      0.012195      0.109834
      2.29840      6.13690     18.14933         0.003179      0.105320      0.806574
      1.69646      6.92919     18.44202         0.407043      0.028673     -0.293028
      1.69198      5.33907     18.37826         0.062097     -0.290537     -0.296725
      4.03642      7.03058     19.01520        -0.320489     -0.280833     -0.090218
      2.41243      6.45512     20.93616        -0.149004      0.210961      0.152039
      2.67538      4.72289     20.58001        -0.138483      0.073189     -0.034959
      4.02332      5.70617     21.12755         0.038881      0.170941      0.121466
      6.18827      4.48572     18.35615         0.370772      0.407218      0.369673
      3.47601      6.07282     19.06414         0.596117     -0.102294      0.192622
      3.11187      5.73181     20.52008         0.057121     -0.245023     -0.153429
      4.43798      4.95200     18.62616        -0.934999      1.791440      0.382277
      5.69666      5.20906     18.88123         0.888545     -0.487224     -0.185079
      4.04638      3.87826     18.17629        -0.714957     -1.289639     -0.574477
 -----------------------------------------------------------------------------------
    total drift:                                0.103376     -0.111996     -0.195438


--------------------------------------------------------------------------------------------------------



  FREE ENERGIE OF THE ION-ELECTRON SYSTEM (eV)
  ---------------------------------------------------
  free  energy   TOTEN  =      -636.93748289 eV

  energy  without entropy=     -636.90392853  energy(sigma->0) =     -636.92629810
 
 d Force = 0.4166180E-02[ 0.989E-05, 0.832E-02]  d Energy = 0.4224224E-02-0.580E-04
 d Force = 0.2434196E+02[ 0.243E+02, 0.244E+02]  d Ewald  = 0.2434195E+02 0.109E-04


--------------------------------------------------------------------------------------------------------


    POTLOK:  cpu time      0.0544: real time      0.0547


--------------------------------------------------------------------------------------------------------




--------------------------------------------------------------------------------------------------------


 writing wavefunctions
     LOOP+:  cpu time     24.2047: real time     25.8411
    4ORBIT:  cpu time      0.0000: real time      0.0000

 total amount of memory used by VASP MPI-rank0    51977. kBytes
=======================================================================

   base      :      30000. kBytes
   nonlr-proj:       2179. kBytes
   fftplans  :       4148. kBytes
   grid      :       9794. kBytes
   one-center:         46. kBytes
   wavefun   :       5810. kBytes
 
  
  
 General timing and accounting informations for this job:
 ========================================================
  
                  Total CPU time used (sec):      165.906
                            User time (sec):      152.123
                          System time (sec):       13.783
                         Elapsed time (sec):      174.469
  
                   Maximum memory used (kb):      275316.
                   Average memory used (kb):          N/A
  
                          Minor page faults:        20250
                          Major page faults:         5722
                 Voluntary context switches:         2254
