Bulk                                    
           1
    10.831300    0.000000    0.000000
    -5.415650    9.380181    0.000000
     0.000000    0.000000   25.608601
   Ru   N    H    C    O 
    64     1     7     3     2
Direct configuration=     1
   0.15498166  0.07790906  0.37544063
   0.15625319  0.33126730  0.37583112
   0.15630753  0.58018855  0.37545479
   0.15350176  0.82978666  0.37505540
   0.40527370  0.08027111  0.37525041
   0.40626019  0.32947157  0.37560331
   0.40467187  0.58053348  0.37568959
   0.40605614  0.82864661  0.37532530
   0.65292463  0.07770930  0.37558182
   0.65272258  0.32960197  0.37593340
   0.65472971  0.57878174  0.37614102
   0.65230848  0.82832241  0.37574221
   0.90443570  0.07942895  0.37623192
   0.90531016  0.32959744  0.37629610
   0.90429213  0.58120952  0.37553665
   0.90580268  0.82807186  0.37550297
   0.07115490  0.16241081  0.45520494
   0.07050706  0.41209857  0.45532504
   0.07034854  0.66171661  0.45581900
   0.07189550  0.91357377  0.45540927
   0.32165986  0.16352998  0.45585268
   0.32215759  0.41322194  0.45630479
   0.32237048  0.66248075  0.45602366
   0.32145228  0.91278993  0.45556859
   0.57252235  0.16434440  0.45606456
   0.57096180  0.41244779  0.45517348
   0.57118593  0.66270676  0.45515612
   0.57214545  0.91216045  0.45602290
   0.82142962  0.16276745  0.45487129
   0.82072738  0.41279941  0.45594681
   0.82051873  0.66141385  0.45621960
   0.82028425  0.91221742  0.45575276
   0.15516022  0.07935277  0.54075353
   0.15432323  0.32868664  0.54094830
   0.15544242  0.57979510  0.54105716
   0.15583571  0.82998006  0.54064189
   0.40434813  0.07890837  0.54094620
   0.40430951  0.32875450  0.54174747
   0.40255572  0.57839229  0.54152219
   0.40460529  0.82909879  0.54145843
   0.65412434  0.07862276  0.54121899
   0.65383483  0.32814732  0.54168013
   0.65536663  0.57933854  0.54119887
   0.65475129  0.83054392  0.54125057
   0.90451863  0.07927321  0.54092075
   0.90440046  0.32861856  0.54099685
   0.90551920  0.57956052  0.54114198
   0.90537430  0.83024745  0.54075706
   0.07178761  0.16148952  0.62028126
   0.07024275  0.41225619  0.62043929
   0.07236389  0.66252493  0.62070648
   0.07182697  0.91414850  0.62035976
   0.31862341  0.16058780  0.62076869
   0.31695188  0.40881636  0.62040806
   0.31938250  0.66249704  0.62092835
   0.32175433  0.91294739  0.62065812
   0.57149326  0.16003842  0.62089612
   0.57249391  0.41230630  0.62484961
   0.57148445  0.66290754  0.62183654
   0.57132849  0.91556988  0.62079487
   0.82062421  0.16292354  0.62051928
   0.82290676  0.41171910  0.62053519
   0.82506709  0.66536578  0.61947420
   0.82429977  0.91446315  0.62055395
   0.53792163  0.65517959  0.70725567
   0.52504346  0.73796080  0.72038240
   0.44065234  0.56957262  0.71804920
   0.74688035  0.74899521  0.74261616
   0.56647113  0.68845646  0.81768577
   0.49893576  0.50339141  0.80377979
   0.67565466  0.60793054  0.82498810
   0.80952164  0.47884512  0.71687430
   0.64808860  0.64722887  0.74475902
   0.59305099  0.61059763  0.80063675
   0.67195078  0.53011857  0.72835777
   0.80498473  0.55466325  0.73698195
   0.58049375  0.41175868  0.70923007
Direct configuration=     2
   0.15498166  0.07790906  0.37544063
   0.15625319  0.33126730  0.37583112
   0.15630753  0.58018855  0.37545479
   0.15350176  0.82978666  0.37505540
   0.40527370  0.08027111  0.37525041
   0.40626019  0.32947157  0.37560331
   0.40467187  0.58053348  0.37568959
   0.40605614  0.82864661  0.37532530
   0.65292463  0.07770930  0.37558182
   0.65272258  0.32960197  0.37593340
   0.65472971  0.57878174  0.37614102
   0.65230848  0.82832241  0.37574221
   0.90443570  0.07942895  0.37623192
   0.90531016  0.32959744  0.37629610
   0.90429213  0.58120952  0.37553665
   0.90580268  0.82807186  0.37550297
   0.07115490  0.16241081  0.45520494
   0.07050706  0.41209857  0.45532504
   0.07034854  0.66171661  0.45581900
   0.07189550  0.91357377  0.45540927
   0.32165986  0.16352998  0.45585268
   0.32215759  0.41322194  0.45630479
   0.32237048  0.66248075  0.45602366
   0.32145228  0.91278993  0.45556859
   0.57252235  0.16434440  0.45606456
   0.57092779  0.41224030  0.45553803
   0.57109562  0.66267356  0.45558142
   0.57214545  0.91216045  0.45602290
   0.82142962  0.16276745  0.45487129
   0.82072738  0.41279941  0.45594681
   0.82051873  0.66141385  0.45621960
   0.82028425  0.91221742  0.45575276
   0.15524545  0.07941726  0.54070814
   0.15471148  0.32891875  0.54089925
   0.15542590  0.57979179  0.54094917
   0.15562573  0.82980827  0.54044270
   0.40441633  0.07906672  0.54071574
   0.40499433  0.32922444  0.54149662
   0.40329432  0.57864594  0.54130245
   0.40466280  0.82899878  0.54112948
   0.65407540  0.07867435  0.54119598
   0.65406421  0.32898736  0.54151798
   0.65488300  0.57884898  0.54130964
   0.65489449  0.83022413  0.54115965
   0.90438041  0.07908911  0.54068447
   0.90413018  0.32890776  0.54081201
   0.90528021  0.57905460  0.54084533
   0.90512673  0.83015985  0.54061730
   0.07204998  0.16110616  0.62046024
   0.07063011  0.41289942  0.62050620
   0.07240988  0.66222902  0.62087389
   0.07155768  0.91438625  0.62044638
   0.31787329  0.16009844  0.62095501
   0.31602914  0.40854469  0.62057670
   0.31861914  0.66250603  0.62102778
   0.32217681  0.91278480  0.62118628
   0.57160528  0.15915084  0.62104794
   0.57224805  0.41184070  0.62413547
   0.57100394  0.66308277  0.62207123
   0.57088747  0.91617229  0.62070900
   0.82003335  0.16291386  0.62065436
   0.82361148  0.41146007  0.62056141
   0.82591325  0.66628155  0.61978901
   0.82491565  0.91462228  0.62069377
   0.53913995  0.65436217  0.70853113
   0.52585773  0.73860893  0.72017952
   0.44078542  0.56923635  0.71771001
   0.74735001  0.74944693  0.74254270
   0.56676679  0.68820292  0.81756249
   0.49877621  0.50348303  0.80365513
   0.67561906  0.60827114  0.82501376
   0.81032037  0.47829444  0.71680637
   0.64507372  0.64738611  0.74448369
   0.59285950  0.61099642  0.80121142
   0.67347177  0.52820490  0.72747123
   0.80378446  0.55524025  0.73725925
   0.58033268  0.41323413  0.70970273
Direct configuration=     3
   0.15498166  0.07790906  0.37544063
   0.15625319  0.33126730  0.37583112
   0.15630753  0.58018855  0.37545479
   0.15350176  0.82978666  0.37505540
   0.40527370  0.08027111  0.37525041
   0.40626019  0.32947157  0.37560331
   0.40467187  0.58053348  0.37568959
   0.40605614  0.82864661  0.37532530
   0.65292463  0.07770930  0.37558182
   0.65272258  0.32960197  0.37593340
   0.65472971  0.57878174  0.37614102
   0.65230848  0.82832241  0.37574221
   0.90443570  0.07942895  0.37623192
   0.90531016  0.32959744  0.37629610
   0.90429213  0.58120952  0.37553665
   0.90580268  0.82807186  0.37550297
   0.07115490  0.16241081  0.45520494
   0.07050706  0.41209857  0.45532504
   0.07034854  0.66171661  0.45581900
   0.07189550  0.91357377  0.45540927
   0.32165986  0.16352998  0.45585268
   0.32215759  0.41322194  0.45630479
   0.32237048  0.66248075  0.45602366
   0.32145228  0.91278993  0.45556859
   0.57252235  0.16434440  0.45606456
   0.57092276  0.41220957  0.45559201
   0.57108224  0.66266864  0.45564439
   0.57214545  0.91216045  0.45602290
   0.82142962  0.16276745  0.45487129
   0.82072738  0.41279941  0.45594681
   0.82051873  0.66141385  0.45621960
   0.82028425  0.91221742  0.45575276
   0.15525807  0.07942680  0.54070142
   0.15476896  0.32895311  0.54089198
   0.15542345  0.57979130  0.54093318
   0.15559464  0.82978283  0.54041321
   0.40442643  0.07909017  0.54068162
   0.40509572  0.32929402  0.54145948
   0.40340368  0.57868349  0.54126992
   0.40467132  0.82898397  0.54108078
   0.65406816  0.07868198  0.54119258
   0.65409817  0.32911173  0.54149397
   0.65481139  0.57877650  0.54132604
   0.65491570  0.83017678  0.54114618
   0.90435994  0.07906186  0.54064948
   0.90409016  0.32895058  0.54078464
   0.90524483  0.57897970  0.54080141
   0.90509007  0.83014688  0.54059661
   0.07208883  0.16104940  0.62048674
   0.07068746  0.41299466  0.62051610
   0.07241669  0.66218521  0.62089867
   0.07151780  0.91442145  0.62045921
   0.31776222  0.16002598  0.62098260
   0.31589252  0.40850447  0.62060167
   0.31850612  0.66250736  0.62104250
   0.32223936  0.91276073  0.62126448
   0.57162186  0.15901943  0.62107042
   0.57221165  0.41177176  0.62402973
   0.57093280  0.66310871  0.62210598
   0.57082217  0.91626148  0.62069629
   0.81994586  0.16291243  0.62067436
   0.82371582  0.41142172  0.62056529
   0.82603853  0.66641714  0.61983562
   0.82500684  0.91464584  0.62071447
   0.53932034  0.65424114  0.70871997
   0.52597829  0.73870489  0.72014948
   0.44080513  0.56918657  0.71765978
   0.74741955  0.74951382  0.74253182
   0.56681056  0.68816538  0.81754424
   0.49875258  0.50349659  0.80363668
   0.67561379  0.60832157  0.82501756
   0.81043863  0.47821291  0.71679631
   0.64462733  0.64740940  0.74444293
   0.59283115  0.61105546  0.80129650
   0.67369697  0.52792156  0.72733997
   0.80360675  0.55532568  0.73730031
   0.58030883  0.41345259  0.70977272
