  16  16   1   0
  0.6430058E+02  0.7757600E-09  0.1170620E-08  0.1132900E-08  0.2000000E-15
  1.000000000000000E-004
  CAR 
 QM9                                     
      3.90401160    -31.53803993  301     -4.12213632      1.00000000
    -31.538  0.0000E+00  0.0000E+00
    -31.420  0.0000E+00  0.0000E+00
    -31.302  0.0000E+00  0.0000E+00
    -31.184  0.0000E+00  0.0000E+00
    -31.065  0.0000E+00  0.0000E+00
    -30.947  0.0000E+00  0.0000E+00
    -30.829  0.0000E+00  0.0000E+00
    -30.711  0.0000E+00  0.0000E+00
    -30.593  0.0000E+00  0.0000E+00
    -30.475  0.7988E-14  0.9437E-15
    -30.357  0.1046E-08  0.1236E-09
    -30.238  0.8965E-05  0.1059E-05
    -30.120  0.5288E-02  0.6258E-03
    -30.002  0.2382E+00  0.2877E-01
    -29.884  0.9894E+00  0.1457E+00
    -29.766  0.4408E+00  0.1977E+00
    -29.648  0.1916E-01  0.2000E+00
    -29.530  0.6640E-04  0.2000E+00
    -29.412  0.1618E-07  0.2000E+00
    -29.293  0.2613E-12  0.2000E+00
    -29.175  0.0000E+00  0.2000E+00
    -29.057  0.0000E+00  0.2000E+00
    -28.939  0.0000E+00  0.2000E+00
    -28.821  0.0000E+00  0.2000E+00
    -28.703  0.0000E+00  0.2000E+00
    -28.585  0.0000E+00  0.2000E+00
    -28.466  0.0000E+00  0.2000E+00
    -28.348  0.0000E+00  0.2000E+00
    -28.230  0.0000E+00  0.2000E+00
    -28.112  0.0000E+00  0.2000E+00
    -27.994  0.0000E+00  0.2000E+00
    -27.876  0.0000E+00  0.2000E+00
    -27.758  0.0000E+00  0.2000E+00
    -27.639  0.0000E+00  0.2000E+00
    -27.521  0.0000E+00  0.2000E+00
    -27.403  0.0000E+00  0.2000E+00
    -27.285  0.0000E+00  0.2000E+00
    -27.167  0.0000E+00  0.2000E+00
    -27.049  0.0000E+00  0.2000E+00
    -26.931  0.0000E+00  0.2000E+00
    -26.812  0.0000E+00  0.2000E+00
    -26.694  0.0000E+00  0.2000E+00
    -26.576  0.0000E+00  0.2000E+00
    -26.458  0.0000E+00  0.2000E+00
    -26.340  0.0000E+00  0.2000E+00
    -26.222  0.0000E+00  0.2000E+00
    -26.104  0.0000E+00  0.2000E+00
    -25.985  0.0000E+00  0.2000E+00
    -25.867  0.0000E+00  0.2000E+00
    -25.749  0.0000E+00  0.2000E+00
    -25.631  0.0000E+00  0.2000E+00
    -25.513  0.0000E+00  0.2000E+00
    -25.395  0.0000E+00  0.2000E+00
    -25.277  0.0000E+00  0.2000E+00
    -25.158  0.0000E+00  0.2000E+00
    -25.040  0.0000E+00  0.2000E+00
    -24.922  0.0000E+00  0.2000E+00
    -24.804  0.0000E+00  0.2000E+00
    -24.686  0.0000E+00  0.2000E+00
    -24.568  0.0000E+00  0.2000E+00
    -24.450  0.0000E+00  0.2000E+00
    -24.331  0.0000E+00  0.2000E+00
    -24.213  0.0000E+00  0.2000E+00
    -24.095  0.0000E+00  0.2000E+00
    -23.977  0.1222E-14  0.2000E+00
    -23.859  0.2280E-09  0.2000E+00
    -23.741  0.2883E-05  0.2000E+00
    -23.623  0.2486E-02  0.2003E+00
    -23.505  0.1605E+00  0.2193E+00
    -23.386  0.9263E+00  0.3287E+00
    -23.268  0.5685E+00  0.3958E+00
    -23.150  0.3497E-01  0.4000E+00
    -23.032  0.1760E-03  0.4000E+00
    -22.914  0.6310E-07  0.4000E+00
    -22.796  0.1508E-11  0.4000E+00
    -22.678  0.0000E+00  0.4000E+00
    -22.559  0.0000E+00  0.4000E+00
    -22.441  0.0000E+00  0.4000E+00
    -22.323  0.0000E+00  0.4000E+00
    -22.205  0.0000E+00  0.4000E+00
    -22.087  0.3082E-11  0.4000E+00
    -21.969  0.1095E-06  0.4000E+00
    -21.851  0.2601E-03  0.4000E+00
    -21.732  0.4426E-01  0.4053E+00
    -21.614  0.6234E+00  0.4789E+00
    -21.496  0.8891E+00  0.5839E+00
    -21.378  0.1341E+00  0.5998E+00
    -21.260  0.1786E-02  0.6000E+00
    -21.142  0.1766E-05  0.6000E+00
    -21.024  0.1187E-09  0.6000E+00
    -20.905  0.5639E-15  0.6000E+00
    -20.787  0.0000E+00  0.6000E+00
    -20.669  0.0000E+00  0.6000E+00
    -20.551  0.0000E+00  0.6000E+00
    -20.433  0.0000E+00  0.6000E+00
    -20.315  0.0000E+00  0.6000E+00
    -20.197  0.2334E-12  0.6000E+00
    -20.078  0.1482E-07  0.6000E+00
    -19.960  0.6232E-04  0.6000E+00
    -19.842  0.1841E-01  0.6022E+00
    -19.724  0.4331E+00  0.6533E+00
    -19.606  0.9920E+00  0.7705E+00
    -19.488  0.2438E+00  0.7993E+00
    -19.370  0.5536E-02  0.8000E+00
    -19.251  0.9613E-05  0.8000E+00
    -19.133  0.1150E-08  0.8000E+00
    -19.015  0.9022E-14  0.8000E+00
    -18.897  0.0000E+00  0.8000E+00
    -18.779  0.0000E+00  0.8000E+00
    -18.661  0.0000E+00  0.8000E+00
    -18.543  0.0000E+00  0.8000E+00
    -18.424  0.0000E+00  0.8000E+00
    -18.306  0.0000E+00  0.8000E+00
    -18.188  0.4003E-13  0.8000E+00
    -18.070  0.3727E-08  0.8000E+00
    -17.952  0.2284E-04  0.8000E+00
    -17.834  0.9721E-02  0.8012E+00
    -17.716  0.3221E+00  0.8392E+00
    -17.597  0.1010E+01  0.9585E+00
    -17.479  0.3405E+00  0.9987E+00
    -17.361  0.1092E-01  0.1000E+01
    -17.243  0.1283E-02  0.1000E+01
    -17.125  0.1103E+00  0.1013E+01
    -17.007  0.8450E+00  0.1113E+01
    -16.889  0.6799E+00  0.1193E+01
    -16.771  0.5596E-01  0.1200E+01
    -16.652  0.3858E-03  0.1200E+01
    -16.534  0.1918E-06  0.1200E+01
    -16.416  0.6390E-11  0.1200E+01
    -16.298  0.0000E+00  0.1200E+01
    -16.180  0.0000E+00  0.1200E+01
    -16.062  0.0000E+00  0.1200E+01
    -15.944  0.0000E+00  0.1200E+01
    -15.825  0.0000E+00  0.1200E+01
    -15.707  0.0000E+00  0.1200E+01
    -15.589  0.0000E+00  0.1200E+01
    -15.471  0.1880E-15  0.1200E+01
    -15.353  0.5871E-10  0.1200E+01
    -15.235  0.1038E-05  0.1200E+01
    -15.117  0.1243E-02  0.1200E+01
    -14.998  0.1097E+00  0.1213E+01
    -14.880  0.8437E+00  0.1313E+01
    -14.762  0.6821E+00  0.1393E+01
    -14.644  0.1297E+00  0.1409E+01
    -14.526  0.7469E+00  0.1497E+01
    -14.408  0.7855E+00  0.1590E+01
    -14.290  0.8605E-01  0.1600E+01
    -14.171  0.8089E-03  0.1600E+01
    -14.053  0.5556E-06  0.1600E+01
    -13.935  0.2574E-10  0.1600E+01
    -13.817  0.0000E+00  0.1600E+01
    -13.699  0.0000E+00  0.1600E+01
    -13.581  0.0000E+00  0.1600E+01
    -13.463  0.1023E-12  0.1600E+01
    -13.344  0.7782E-08  0.1600E+01
    -13.226  0.3907E-04  0.1600E+01
    -13.108  0.1371E-01  0.1602E+01
    -12.990  0.3788E+00  0.1646E+01
    -12.872  0.1006E+01  0.1765E+01
    -12.754  0.2871E+00  0.1799E+01
    -12.636  0.7675E-02  0.1800E+01
    -12.517  0.1626E-04  0.1800E+01
    -12.399  0.6515E-03  0.1800E+01
    -12.281  0.7599E-01  0.1809E+01
    -12.163  0.7560E+00  0.1898E+01
    -12.045  0.8705E+00  0.2001E+01
    -11.927  0.8882E+00  0.2106E+01
    -11.809  0.7264E+00  0.2192E+01
    -11.690  0.6743E-01  0.2200E+01
    -11.572  0.5301E-03  0.2200E+01
    -11.454  0.3023E-06  0.2200E+01
    -11.336  0.1907E-05  0.2200E+01
    -11.218  0.1881E-02  0.2200E+01
    -11.100  0.1380E+00  0.2217E+01
    -10.982  0.8957E+00  0.2322E+01
    -10.864  0.6791E+00  0.2403E+01
    -10.745  0.7563E+00  0.2492E+01
    -10.627  0.8163E+00  0.2588E+01
    -10.509  0.1169E+00  0.2602E+01
    -10.391  0.4436E+00  0.2655E+01
    -10.273  0.9887E+00  0.2771E+01
    -10.155  0.2369E+00  0.2799E+01
    -10.037  0.5231E-02  0.2800E+01
     -9.918  0.8819E-05  0.2800E+01
     -9.800  0.6484E-05  0.2800E+01
     -9.682  0.4300E-02  0.2801E+01
     -9.564  0.2258E+00  0.2827E+01
     -9.446  0.1337E+01  0.2985E+01
     -9.328  0.1486E+01  0.3161E+01
     -9.210  0.4015E+00  0.3208E+01
     -9.091  0.9946E+00  0.3326E+01
     -8.973  0.1788E+01  0.3537E+01
     -8.855  0.5210E+00  0.3598E+01
     -8.737  0.2551E+00  0.3629E+01
     -8.619  0.9885E+00  0.3745E+01
     -8.501  0.4433E+00  0.3798E+01
     -8.383  0.1946E-01  0.3800E+01
     -8.264  0.1742E-01  0.3802E+01
     -8.146  0.4218E+00  0.3852E+01
     -8.028  0.9955E+00  0.3969E+01
     -7.910  0.2523E+00  0.3999E+01
     -7.792  0.5922E-02  0.4000E+01
     -7.674  0.1065E-04  0.4000E+01
     -7.556  0.1440E-08  0.4000E+01
     -7.437  0.1764E-05  0.4000E+01
     -7.319  0.1784E-02  0.4000E+01
     -7.201  0.1340E+00  0.4016E+01
     -7.083  0.8889E+00  0.4121E+01
     -6.965  0.6236E+00  0.4195E+01
     -6.847  0.4430E-01  0.4200E+01
     -6.729  0.2604E-03  0.4200E+01
     -6.610  0.1097E-06  0.4200E+01
     -6.492  0.3089E-11  0.4200E+01
     -6.374  0.1171E-10  0.4200E+01
     -6.256  0.3049E-06  0.4200E+01
     -6.138  0.5335E-03  0.4200E+01
     -6.020  0.6767E-01  0.4208E+01
     -5.902  0.7266E+00  0.4294E+01
     -5.783  0.8043E+00  0.4389E+01
     -5.665  0.9299E-01  0.4400E+01
     -5.547  0.1560E-01  0.4402E+01
     -5.429  0.3909E+00  0.4448E+01
     -5.311  0.1003E+01  0.4566E+01
     -5.193  0.2768E+00  0.4599E+01
     -5.075  0.7132E-02  0.4600E+01
     -4.957  0.1448E-04  0.4600E+01
     -4.838  0.5503E-03  0.4600E+01
     -4.720  0.6891E-01  0.4608E+01
     -4.602  0.7310E+00  0.4695E+01
     -4.484  0.8001E+00  0.4789E+01
     -4.366  0.9137E-01  0.4800E+01
     -4.248  0.8988E-03  0.4800E+01
     -4.130  0.6473E-06  0.4800E+01
     -4.011  0.3147E-10  0.4800E+01
     -3.893  0.0000E+00  0.4800E+01
     -3.775  0.0000E+00  0.4800E+01
     -3.657  0.0000E+00  0.4800E+01
     -3.539  0.0000E+00  0.4800E+01
     -3.421  0.0000E+00  0.4800E+01
     -3.303  0.0000E+00  0.4800E+01
     -3.184  0.0000E+00  0.4800E+01
     -3.066  0.0000E+00  0.4800E+01
     -2.948  0.0000E+00  0.4800E+01
     -2.830  0.0000E+00  0.4800E+01
     -2.712  0.0000E+00  0.4800E+01
     -2.594  0.0000E+00  0.4800E+01
     -2.476  0.0000E+00  0.4800E+01
     -2.357  0.0000E+00  0.4800E+01
     -2.239  0.0000E+00  0.4800E+01
     -2.121  0.0000E+00  0.4800E+01
     -2.003  0.0000E+00  0.4800E+01
     -1.885  0.0000E+00  0.4800E+01
     -1.767  0.0000E+00  0.4800E+01
     -1.649  0.0000E+00  0.4800E+01
     -1.530  0.0000E+00  0.4800E+01
     -1.412  0.0000E+00  0.4800E+01
     -1.294  0.2371E-11  0.4800E+01
     -1.176  0.8948E-07  0.4800E+01
     -1.058  0.2255E-03  0.4800E+01
     -0.940  0.4062E-01  0.4805E+01
     -0.822  0.6032E+00  0.4876E+01
     -0.703  0.9034E+00  0.4983E+01
     -0.585  0.1435E+00  0.5000E+01
     -0.467  0.2540E-01  0.5003E+01
     -0.349  0.5015E+00  0.5062E+01
     -0.231  0.1436E+01  0.5232E+01
     -0.113  0.1193E+01  0.5373E+01
      0.005  0.2274E+00  0.5399E+01
      0.124  0.4663E-02  0.5400E+01
      0.242  0.4928E-04  0.5400E+01
      0.360  0.1442E-01  0.5402E+01
      0.478  0.4105E+00  0.5450E+01
      0.596  0.1491E+01  0.5626E+01
      0.714  0.1342E+01  0.5785E+01
      0.832  0.1012E+01  0.5905E+01
      0.951  0.7471E+00  0.5993E+01
      1.069  0.3826E+00  0.6038E+01
      1.187  0.1010E+01  0.6157E+01
      1.305  0.3501E+00  0.6199E+01
      1.423  0.1434E-01  0.6200E+01
      1.541  0.1699E+00  0.6220E+01
      1.659  0.9747E+00  0.6336E+01
      1.777  0.1150E+01  0.6471E+01
      1.896  0.1395E+01  0.6636E+01
      2.014  0.1948E+01  0.6866E+01
      2.132  0.1069E+01  0.6993E+01
      2.250  0.5221E+00  0.7054E+01
      2.368  0.9900E+00  0.7171E+01
      2.486  0.2382E+00  0.7199E+01
      2.604  0.5288E-02  0.7200E+01
      2.723  0.8965E-05  0.7200E+01
      2.841  0.1046E-08  0.7200E+01
      2.959  0.7894E-14  0.7200E+01
      3.077  0.0000E+00  0.7200E+01
      3.195  0.0000E+00  0.7200E+01
      3.313  0.0000E+00  0.7200E+01
      3.431  0.0000E+00  0.7200E+01
      3.550  0.0000E+00  0.7200E+01
      3.668  0.0000E+00  0.7200E+01
      3.786  0.0000E+00  0.7200E+01
      3.904  0.0000E+00  0.7200E+01
      3.90401160    -31.53803993  301     -4.12213632      1.00000000
    -31.538  0.0000E+00  0.0000E+00  0.0000E+00  0.0000E+00  0.0000E+00  0.0000E+00  0.0000E+00  0.0000E+00  0.0000E+00
    -31.420  0.0000E+00  0.0000E+00  0.0000E+00  0.0000E+00  0.0000E+00  0.0000E+00  0.0000E+00  0.0000E+00  0.0000E+00
    -31.302  0.0000E+00  0.0000E+00  0.0000E+00  0.0000E+00  0.0000E+00  0.0000E+00  0.0000E+00  0.0000E+00  0.0000E+00
    -31.184  0.0000E+00  0.0000E+00  0.0000E+00  0.0000E+00  0.0000E+00  0.0000E+00  0.0000E+00  0.0000E+00  0.0000E+00
    -31.065  0.0000E+00  0.0000E+00  0.0000E+00  0.0000E+00  0.0000E+00  0.0000E+00  0.0000E+00  0.0000E+00  0.0000E+00
    -30.947  0.0000E+00  0.0000E+00  0.0000E+00  0.0000E+00  0.0000E+00  0.0000E+00  0.0000E+00  0.0000E+00  0.0000E+00
    -30.829  0.0000E+00  0.0000E+00  0.0000E+00  0.0000E+00  0.0000E+00  0.0000E+00  0.0000E+00  0.0000E+00  0.0000E+00
    -30.711  0.0000E+00  0.0000E+00  0.0000E+00  0.0000E+00  0.0000E+00  0.0000E+00  0.0000E+00  0.0000E+00  0.0000E+00
    -30.593  0.0000E+00  0.0000E+00  0.0000E+00  0.0000E+00  0.0000E+00  0.0000E+00  0.0000E+00  0.0000E+00  0.0000E+00
    -30.475  0.4464E-17  0.1482E-17  0.7681E-18  0.6505E-24  0.0000E+00  0.0000E+00  0.0000E+00  0.0000E+00  0.0000E+00
    -30.357  0.5848E-12  0.1941E-12  0.1006E-12  0.8521E-19  0.0000E+00  0.0000E+00  0.0000E+00  0.0000E+00  0.0000E+00
    -30.238  0.5010E-08  0.1663E-08  0.8620E-09  0.7300E-15  0.0000E+00  0.0000E+00  0.0000E+00  0.0000E+00  0.0000E+00
    -30.120  0.2955E-05  0.9810E-06  0.5085E-06  0.4306E-12  0.0000E+00  0.0000E+00  0.0000E+00  0.0000E+00  0.0000E+00
    -30.002  0.1331E-03  0.4419E-04  0.2291E-04  0.1940E-10  0.0000E+00  0.0000E+00  0.0000E+00  0.0000E+00  0.0000E+00
    -29.884  0.5529E-03  0.1835E-03  0.9513E-04  0.8056E-10  0.0000E+00  0.0000E+00  0.0000E+00  0.0000E+00  0.0000E+00
    -29.766  0.2463E-03  0.8178E-04  0.4239E-04  0.3590E-10  0.0000E+00  0.0000E+00  0.0000E+00  0.0000E+00  0.0000E+00
    -29.648  0.1070E-04  0.3554E-05  0.1842E-05  0.1560E-11  0.0000E+00  0.0000E+00  0.0000E+00  0.0000E+00  0.0000E+00
    -29.530  0.3710E-07  0.1232E-07  0.6385E-08  0.5407E-14  0.0000E+00  0.0000E+00  0.0000E+00  0.0000E+00  0.0000E+00
    -29.412  0.9043E-11  0.3002E-11  0.1556E-11  0.1318E-17  0.0000E+00  0.0000E+00  0.0000E+00  0.0000E+00  0.0000E+00
    -29.293  0.1460E-15  0.4847E-16  0.2512E-16  0.2127E-22  0.0000E+00  0.0000E+00  0.0000E+00  0.0000E+00  0.0000E+00
    -29.175  0.0000E+00  0.0000E+00  0.0000E+00  0.0000E+00  0.0000E+00  0.0000E+00  0.0000E+00  0.0000E+00  0.0000E+00
    -29.057  0.0000E+00  0.0000E+00  0.0000E+00  0.0000E+00  0.0000E+00  0.0000E+00  0.0000E+00  0.0000E+00  0.0000E+00
    -28.939  0.0000E+00  0.0000E+00  0.0000E+00  0.0000E+00  0.0000E+00  0.0000E+00  0.0000E+00  0.0000E+00  0.0000E+00
    -28.821  0.0000E+00  0.0000E+00  0.0000E+00  0.0000E+00  0.0000E+00  0.0000E+00  0.0000E+00  0.0000E+00  0.0000E+00
    -28.703  0.0000E+00  0.0000E+00  0.0000E+00  0.0000E+00  0.0000E+00  0.0000E+00  0.0000E+00  0.0000E+00  0.0000E+00
    -28.585  0.0000E+00  0.0000E+00  0.0000E+00  0.0000E+00  0.0000E+00  0.0000E+00  0.0000E+00  0.0000E+00  0.0000E+00
    -28.466  0.0000E+00  0.0000E+00  0.0000E+00  0.0000E+00  0.0000E+00  0.0000E+00  0.0000E+00  0.0000E+00  0.0000E+00
    -28.348  0.0000E+00  0.0000E+00  0.0000E+00  0.0000E+00  0.0000E+00  0.0000E+00  0.0000E+00  0.0000E+00  0.0000E+00
    -28.230  0.0000E+00  0.0000E+00  0.0000E+00  0.0000E+00  0.0000E+00  0.0000E+00  0.0000E+00  0.0000E+00  0.0000E+00
    -28.112  0.0000E+00  0.0000E+00  0.0000E+00  0.0000E+00  0.0000E+00  0.0000E+00  0.0000E+00  0.0000E+00  0.0000E+00
    -27.994  0.0000E+00  0.0000E+00  0.0000E+00  0.0000E+00  0.0000E+00  0.0000E+00  0.0000E+00  0.0000E+00  0.0000E+00
    -27.876  0.0000E+00  0.0000E+00  0.0000E+00  0.0000E+00  0.0000E+00  0.0000E+00  0.0000E+00  0.0000E+00  0.0000E+00
    -27.758  0.0000E+00  0.0000E+00  0.0000E+00  0.0000E+00  0.0000E+00  0.0000E+00  0.0000E+00  0.0000E+00  0.0000E+00
    -27.639  0.0000E+00  0.0000E+00  0.0000E+00  0.0000E+00  0.0000E+00  0.0000E+00  0.0000E+00  0.0000E+00  0.0000E+00
    -27.521  0.0000E+00  0.0000E+00  0.0000E+00  0.0000E+00  0.0000E+00  0.0000E+00  0.0000E+00  0.0000E+00  0.0000E+00
    -27.403  0.0000E+00  0.0000E+00  0.0000E+00  0.0000E+00  0.0000E+00  0.0000E+00  0.0000E+00  0.0000E+00  0.0000E+00
    -27.285  0.0000E+00  0.0000E+00  0.0000E+00  0.0000E+00  0.0000E+00  0.0000E+00  0.0000E+00  0.0000E+00  0.0000E+00
    -27.167  0.0000E+00  0.0000E+00  0.0000E+00  0.0000E+00  0.0000E+00  0.0000E+00  0.0000E+00  0.0000E+00  0.0000E+00
    -27.049  0.0000E+00  0.0000E+00  0.0000E+00  0.0000E+00  0.0000E+00  0.0000E+00  0.0000E+00  0.0000E+00  0.0000E+00
    -26.931  0.0000E+00  0.0000E+00  0.0000E+00  0.0000E+00  0.0000E+00  0.0000E+00  0.0000E+00  0.0000E+00  0.0000E+00
    -26.812  0.0000E+00  0.0000E+00  0.0000E+00  0.0000E+00  0.0000E+00  0.0000E+00  0.0000E+00  0.0000E+00  0.0000E+00
    -26.694  0.0000E+00  0.0000E+00  0.0000E+00  0.0000E+00  0.0000E+00  0.0000E+00  0.0000E+00  0.0000E+00  0.0000E+00
    -26.576  0.0000E+00  0.0000E+00  0.0000E+00  0.0000E+00  0.0000E+00  0.0000E+00  0.0000E+00  0.0000E+00  0.0000E+00
    -26.458  0.0000E+00  0.0000E+00  0.0000E+00  0.0000E+00  0.0000E+00  0.0000E+00  0.0000E+00  0.0000E+00  0.0000E+00
    -26.340  0.0000E+00  0.0000E+00  0.0000E+00  0.0000E+00  0.0000E+00  0.0000E+00  0.0000E+00  0.0000E+00  0.0000E+00
    -26.222  0.0000E+00  0.0000E+00  0.0000E+00  0.0000E+00  0.0000E+00  0.0000E+00  0.0000E+00  0.0000E+00  0.0000E+00
    -26.104  0.0000E+00  0.0000E+00  0.0000E+00  0.0000E+00  0.0000E+00  0.0000E+00  0.0000E+00  0.0000E+00  0.0000E+00
    -25.985  0.0000E+00  0.0000E+00  0.0000E+00  0.0000E+00  0.0000E+00  0.0000E+00  0.0000E+00  0.0000E+00  0.0000E+00
    -25.867  0.0000E+00  0.0000E+00  0.0000E+00  0.0000E+00  0.0000E+00  0.0000E+00  0.0000E+00  0.0000E+00  0.0000E+00
    -25.749  0.0000E+00  0.0000E+00  0.0000E+00  0.0000E+00  0.0000E+00  0.0000E+00  0.0000E+00  0.0000E+00  0.0000E+00
    -25.631  0.0000E+00  0.0000E+00  0.0000E+00  0.0000E+00  0.0000E+00  0.0000E+00  0.0000E+00  0.0000E+00  0.0000E+00
    -25.513  0.0000E+00  0.0000E+00  0.0000E+00  0.0000E+00  0.0000E+00  0.0000E+00  0.0000E+00  0.0000E+00  0.0000E+00
    -25.395  0.0000E+00  0.0000E+00  0.0000E+00  0.0000E+00  0.0000E+00  0.0000E+00  0.0000E+00  0.0000E+00  0.0000E+00
    -25.277  0.0000E+00  0.0000E+00  0.0000E+00  0.0000E+00  0.0000E+00  0.0000E+00  0.0000E+00  0.0000E+00  0.0000E+00
    -25.158  0.0000E+00  0.0000E+00  0.0000E+00  0.0000E+00  0.0000E+00  0.0000E+00  0.0000E+00  0.0000E+00  0.0000E+00
    -25.040  0.0000E+00  0.0000E+00  0.0000E+00  0.0000E+00  0.0000E+00  0.0000E+00  0.0000E+00  0.0000E+00  0.0000E+00
    -24.922  0.0000E+00  0.0000E+00  0.0000E+00  0.0000E+00  0.0000E+00  0.0000E+00  0.0000E+00  0.0000E+00  0.0000E+00
    -24.804  0.0000E+00  0.0000E+00  0.0000E+00  0.0000E+00  0.0000E+00  0.0000E+00  0.0000E+00  0.0000E+00  0.0000E+00
    -24.686  0.0000E+00  0.0000E+00  0.0000E+00  0.0000E+00  0.0000E+00  0.0000E+00  0.0000E+00  0.0000E+00  0.0000E+00
    -24.568  0.0000E+00  0.0000E+00  0.0000E+00  0.0000E+00  0.0000E+00  0.0000E+00  0.0000E+00  0.0000E+00  0.0000E+00
    -24.450  0.0000E+00  0.0000E+00  0.0000E+00  0.0000E+00  0.0000E+00  0.0000E+00  0.0000E+00  0.0000E+00  0.0000E+00
    -24.331  0.0000E+00  0.0000E+00  0.0000E+00  0.0000E+00  0.0000E+00  0.0000E+00  0.0000E+00  0.0000E+00  0.0000E+00
    -24.213  0.0000E+00  0.0000E+00  0.0000E+00  0.0000E+00  0.0000E+00  0.0000E+00  0.0000E+00  0.0000E+00  0.0000E+00
    -24.095  0.0000E+00  0.0000E+00  0.0000E+00  0.0000E+00  0.0000E+00  0.0000E+00  0.0000E+00  0.0000E+00  0.0000E+00
    -23.977  0.2744E-17  0.7460E-18  0.1343E-20  0.1640E-23  0.0000E+00  0.0000E+00  0.0000E+00  0.0000E+00  0.0000E+00
    -23.859  0.5122E-12  0.1392E-12  0.2506E-15  0.3062E-18  0.0000E+00  0.0000E+00  0.0000E+00  0.0000E+00  0.0000E+00
    -23.741  0.6475E-08  0.1760E-08  0.3168E-11  0.3871E-14  0.0000E+00  0.0000E+00  0.0000E+00  0.0000E+00  0.0000E+00
    -23.623  0.5583E-05  0.1518E-05  0.2732E-08  0.3338E-11  0.0000E+00  0.0000E+00  0.0000E+00  0.0000E+00  0.0000E+00
    -23.505  0.3604E-03  0.9799E-04  0.1764E-06  0.2155E-09  0.0000E+00  0.0000E+00  0.0000E+00  0.0000E+00  0.0000E+00
    -23.386  0.2080E-02  0.5656E-03  0.1018E-05  0.1244E-08  0.0000E+00  0.0000E+00  0.0000E+00  0.0000E+00  0.0000E+00
    -23.268  0.1277E-02  0.3472E-03  0.6248E-06  0.7634E-09  0.0000E+00  0.0000E+00  0.0000E+00  0.0000E+00  0.0000E+00
    -23.150  0.7854E-04  0.2135E-04  0.3843E-07  0.4695E-10  0.0000E+00  0.0000E+00  0.0000E+00  0.0000E+00  0.0000E+00
    -23.032  0.3953E-06  0.1075E-06  0.1934E-09  0.2363E-12  0.0000E+00  0.0000E+00  0.0000E+00  0.0000E+00  0.0000E+00
    -22.914  0.1417E-09  0.3853E-10  0.6935E-13  0.8474E-16  0.0000E+00  0.0000E+00  0.0000E+00  0.0000E+00  0.0000E+00
    -22.796  0.3387E-14  0.9209E-15  0.1657E-17  0.2025E-20  0.0000E+00  0.0000E+00  0.0000E+00  0.0000E+00  0.0000E+00
    -22.678  0.0000E+00  0.0000E+00  0.0000E+00  0.0000E+00  0.0000E+00  0.0000E+00  0.0000E+00  0.0000E+00  0.0000E+00
    -22.559  0.0000E+00  0.0000E+00  0.0000E+00  0.0000E+00  0.0000E+00  0.0000E+00  0.0000E+00  0.0000E+00  0.0000E+00
    -22.441  0.0000E+00  0.0000E+00  0.0000E+00  0.0000E+00  0.0000E+00  0.0000E+00  0.0000E+00  0.0000E+00  0.0000E+00
    -22.323  0.0000E+00  0.0000E+00  0.0000E+00  0.0000E+00  0.0000E+00  0.0000E+00  0.0000E+00  0.0000E+00  0.0000E+00
    -22.205  0.0000E+00  0.0000E+00  0.0000E+00  0.0000E+00  0.0000E+00  0.0000E+00  0.0000E+00  0.0000E+00  0.0000E+00
    -22.087  0.5231E-13  0.9046E-14  0.1260E-16  0.2356E-19  0.0000E+00  0.0000E+00  0.0000E+00  0.0000E+00  0.0000E+00
    -21.969  0.1859E-08  0.3214E-09  0.4476E-12  0.8371E-15  0.0000E+00  0.0000E+00  0.0000E+00  0.0000E+00  0.0000E+00
    -21.851  0.4415E-05  0.7634E-06  0.1063E-08  0.1988E-11  0.0000E+00  0.0000E+00  0.0000E+00  0.0000E+00  0.0000E+00
    -21.732  0.7512E-03  0.1299E-03  0.1809E-06  0.3383E-09  0.0000E+00  0.0000E+00  0.0000E+00  0.0000E+00  0.0000E+00
    -21.614  0.1058E-01  0.1830E-02  0.2548E-05  0.4765E-08  0.0000E+00  0.0000E+00  0.0000E+00  0.0000E+00  0.0000E+00
    -21.496  0.1509E-01  0.2609E-02  0.3633E-05  0.6795E-08  0.0000E+00  0.0000E+00  0.0000E+00  0.0000E+00  0.0000E+00
    -21.378  0.2276E-02  0.3935E-03  0.5479E-06  0.1025E-08  0.0000E+00  0.0000E+00  0.0000E+00  0.0000E+00  0.0000E+00
    -21.260  0.3030E-04  0.5240E-05  0.7297E-08  0.1365E-10  0.0000E+00  0.0000E+00  0.0000E+00  0.0000E+00  0.0000E+00
    -21.142  0.2998E-07  0.5184E-08  0.7218E-11  0.1350E-13  0.0000E+00  0.0000E+00  0.0000E+00  0.0000E+00  0.0000E+00
    -21.024  0.2015E-11  0.3485E-12  0.4852E-15  0.9075E-18  0.0000E+00  0.0000E+00  0.0000E+00  0.0000E+00  0.0000E+00
    -20.905  0.9570E-17  0.1655E-17  0.2304E-20  0.4309E-23  0.0000E+00  0.0000E+00  0.0000E+00  0.0000E+00  0.0000E+00
    -20.787  0.0000E+00  0.0000E+00  0.0000E+00  0.0000E+00  0.0000E+00  0.0000E+00  0.0000E+00  0.0000E+00  0.0000E+00
    -20.669  0.0000E+00  0.0000E+00  0.0000E+00  0.0000E+00  0.0000E+00  0.0000E+00  0.0000E+00  0.0000E+00  0.0000E+00
    -20.551  0.0000E+00  0.0000E+00  0.0000E+00  0.0000E+00  0.0000E+00  0.0000E+00  0.0000E+00  0.0000E+00  0.0000E+00
    -20.433  0.0000E+00  0.0000E+00  0.0000E+00  0.0000E+00  0.0000E+00  0.0000E+00  0.0000E+00  0.0000E+00  0.0000E+00
    -20.315  0.0000E+00  0.0000E+00  0.0000E+00  0.0000E+00  0.0000E+00  0.0000E+00  0.0000E+00  0.0000E+00  0.0000E+00
    -20.197  0.1912E-12  0.1665E-13  0.2175E-18  0.6678E-19  0.0000E+00  0.0000E+00  0.0000E+00  0.0000E+00  0.0000E+00
    -20.078  0.1214E-07  0.1057E-08  0.1381E-13  0.4240E-14  0.0000E+00  0.0000E+00  0.0000E+00  0.0000E+00  0.0000E+00
    -19.960  0.5104E-04  0.4444E-05  0.5807E-10  0.1783E-10  0.0000E+00  0.0000E+00  0.0000E+00  0.0000E+00  0.0000E+00
    -19.842  0.1508E-01  0.1313E-02  0.1716E-07  0.5267E-08  0.0000E+00  0.0000E+00  0.0000E+00  0.0000E+00  0.0000E+00
    -19.724  0.3547E+00  0.3089E-01  0.4036E-06  0.1239E-06  0.0000E+00  0.0000E+00  0.0000E+00  0.0000E+00  0.0000E+00
    -19.606  0.8124E+00  0.7075E-01  0.9244E-06  0.2838E-06  0.0000E+00  0.0000E+00  0.0000E+00  0.0000E+00  0.0000E+00
    -19.488  0.1997E+00  0.1739E-01  0.2272E-06  0.6976E-07  0.0000E+00  0.0000E+00  0.0000E+00  0.0000E+00  0.0000E+00
    -19.370  0.4534E-02  0.3948E-03  0.5159E-08  0.1584E-08  0.0000E+00  0.0000E+00  0.0000E+00  0.0000E+00  0.0000E+00
    -19.251  0.7873E-05  0.6856E-06  0.8959E-11  0.2750E-11  0.0000E+00  0.0000E+00  0.0000E+00  0.0000E+00  0.0000E+00
    -19.133  0.9418E-09  0.8202E-10  0.1072E-14  0.3290E-15  0.0000E+00  0.0000E+00  0.0000E+00  0.0000E+00  0.0000E+00
    -19.015  0.7389E-14  0.6434E-15  0.8407E-20  0.2581E-20  0.0000E+00  0.0000E+00  0.0000E+00  0.0000E+00  0.0000E+00
    -18.897  0.0000E+00  0.0000E+00  0.0000E+00  0.0000E+00  0.0000E+00  0.0000E+00  0.0000E+00  0.0000E+00  0.0000E+00
    -18.779  0.0000E+00  0.0000E+00  0.0000E+00  0.0000E+00  0.0000E+00  0.0000E+00  0.0000E+00  0.0000E+00  0.0000E+00
    -18.661  0.0000E+00  0.0000E+00  0.0000E+00  0.0000E+00  0.0000E+00  0.0000E+00  0.0000E+00  0.0000E+00  0.0000E+00
    -18.543  0.0000E+00  0.0000E+00  0.0000E+00  0.0000E+00  0.0000E+00  0.0000E+00  0.0000E+00  0.0000E+00  0.0000E+00
    -18.424  0.0000E+00  0.0000E+00  0.0000E+00  0.0000E+00  0.0000E+00  0.0000E+00  0.0000E+00  0.0000E+00  0.0000E+00
    -18.306  0.0000E+00  0.0000E+00  0.0000E+00  0.0000E+00  0.0000E+00  0.0000E+00  0.0000E+00  0.0000E+00  0.0000E+00
    -18.188  0.1789E-15  0.8501E-20  0.1751E-15  0.2106E-20  0.0000E+00  0.0000E+00  0.0000E+00  0.0000E+00  0.0000E+00
    -18.070  0.1666E-10  0.7915E-15  0.1630E-10  0.1961E-15  0.0000E+00  0.0000E+00  0.0000E+00  0.0000E+00  0.0000E+00
    -17.952  0.1021E-06  0.4850E-11  0.9990E-07  0.1202E-11  0.0000E+00  0.0000E+00  0.0000E+00  0.0000E+00  0.0000E+00
    -17.834  0.4344E-04  0.2064E-08  0.4252E-04  0.5115E-09  0.0000E+00  0.0000E+00  0.0000E+00  0.0000E+00  0.0000E+00
    -17.716  0.1439E-02  0.6839E-07  0.1409E-02  0.1695E-07  0.0000E+00  0.0000E+00  0.0000E+00  0.0000E+00  0.0000E+00
    -17.597  0.4512E-02  0.2144E-06  0.4416E-02  0.5312E-07  0.0000E+00  0.0000E+00  0.0000E+00  0.0000E+00  0.0000E+00
    -17.479  0.1522E-02  0.7231E-07  0.1489E-02  0.1792E-07  0.0000E+00  0.0000E+00  0.0000E+00  0.0000E+00  0.0000E+00
    -17.361  0.5156E-04  0.3467E-08  0.4778E-04  0.5747E-09  0.0000E+00  0.0000E+00  0.0000E+00  0.0000E+00  0.0000E+00
    -17.243  0.3274E-02  0.1368E-05  0.3971E-06  0.7701E-11  0.0000E+00  0.0000E+00  0.0000E+00  0.0000E+00  0.0000E+00
    -17.125  0.2877E+00  0.1202E-03  0.2437E-04  0.5501E-09  0.0000E+00  0.0000E+00  0.0000E+00  0.0000E+00  0.0000E+00
    -17.007  0.2203E+01  0.9206E-03  0.1866E-03  0.4213E-08  0.0000E+00  0.0000E+00  0.0000E+00  0.0000E+00  0.0000E+00
    -16.889  0.1773E+01  0.7408E-03  0.1502E-03  0.3390E-08  0.0000E+00  0.0000E+00  0.0000E+00  0.0000E+00  0.0000E+00
    -16.771  0.1459E+00  0.6097E-04  0.1236E-04  0.2790E-09  0.0000E+00  0.0000E+00  0.0000E+00  0.0000E+00  0.0000E+00
    -16.652  0.1006E-02  0.4203E-06  0.8521E-07  0.1924E-11  0.0000E+00  0.0000E+00  0.0000E+00  0.0000E+00  0.0000E+00
    -16.534  0.5000E-06  0.2089E-09  0.4236E-10  0.9562E-15  0.0000E+00  0.0000E+00  0.0000E+00  0.0000E+00  0.0000E+00
    -16.416  0.1666E-10  0.6961E-14  0.1411E-14  0.3186E-19  0.0000E+00  0.0000E+00  0.0000E+00  0.0000E+00  0.0000E+00
    -16.298  0.0000E+00  0.0000E+00  0.0000E+00  0.0000E+00  0.0000E+00  0.0000E+00  0.0000E+00  0.0000E+00  0.0000E+00
    -16.180  0.0000E+00  0.0000E+00  0.0000E+00  0.0000E+00  0.0000E+00  0.0000E+00  0.0000E+00  0.0000E+00  0.0000E+00
    -16.062  0.0000E+00  0.0000E+00  0.0000E+00  0.0000E+00  0.0000E+00  0.0000E+00  0.0000E+00  0.0000E+00  0.0000E+00
    -15.944  0.0000E+00  0.0000E+00  0.0000E+00  0.0000E+00  0.0000E+00  0.0000E+00  0.0000E+00  0.0000E+00  0.0000E+00
    -15.825  0.0000E+00  0.0000E+00  0.0000E+00  0.0000E+00  0.0000E+00  0.0000E+00  0.0000E+00  0.0000E+00  0.0000E+00
    -15.707  0.0000E+00  0.0000E+00  0.0000E+00  0.0000E+00  0.0000E+00  0.0000E+00  0.0000E+00  0.0000E+00  0.0000E+00
    -15.589  0.0000E+00  0.0000E+00  0.0000E+00  0.0000E+00  0.0000E+00  0.0000E+00  0.0000E+00  0.0000E+00  0.0000E+00
    -15.471  0.4631E-17  0.4023E-18  0.5667E-17  0.1005E-22  0.0000E+00  0.0000E+00  0.0000E+00  0.0000E+00  0.0000E+00
    -15.353  0.1447E-11  0.1257E-12  0.1770E-11  0.3140E-17  0.0000E+00  0.0000E+00  0.0000E+00  0.0000E+00  0.0000E+00
    -15.235  0.2558E-07  0.2223E-08  0.3131E-07  0.5552E-13  0.0000E+00  0.0000E+00  0.0000E+00  0.0000E+00  0.0000E+00
    -15.117  0.3063E-04  0.2661E-05  0.3749E-04  0.6649E-10  0.0000E+00  0.0000E+00  0.0000E+00  0.0000E+00  0.0000E+00
    -14.998  0.2704E-02  0.2349E-03  0.3309E-02  0.5868E-08  0.0000E+00  0.0000E+00  0.0000E+00  0.0000E+00  0.0000E+00
    -14.880  0.2079E-01  0.1806E-02  0.2544E-01  0.4512E-07  0.0000E+00  0.0000E+00  0.0000E+00  0.0000E+00  0.0000E+00
    -14.762  0.1714E-01  0.1542E-02  0.2055E-01  0.3661E-07  0.0000E+00  0.0000E+00  0.0000E+00  0.0000E+00  0.0000E+00
    -14.644  0.4286E-01  0.1002E-01  0.2257E-02  0.2316E-07  0.0000E+00  0.0000E+00  0.0000E+00  0.0000E+00  0.0000E+00
    -14.526  0.4219E+00  0.1007E+00  0.5693E-02  0.2050E-06  0.0000E+00  0.0000E+00  0.0000E+00  0.0000E+00  0.0000E+00
    -14.408  0.4439E+00  0.1059E+00  0.5978E-02  0.2156E-06  0.0000E+00  0.0000E+00  0.0000E+00  0.0000E+00  0.0000E+00
    -14.290  0.4863E-01  0.1160E-01  0.6548E-03  0.2362E-07  0.0000E+00  0.0000E+00  0.0000E+00  0.0000E+00  0.0000E+00
    -14.171  0.4571E-03  0.1091E-03  0.6156E-05  0.2221E-09  0.0000E+00  0.0000E+00  0.0000E+00  0.0000E+00  0.0000E+00
    -14.053  0.3140E-06  0.7493E-07  0.4228E-08  0.1525E-12  0.0000E+00  0.0000E+00  0.0000E+00  0.0000E+00  0.0000E+00
    -13.935  0.1454E-10  0.3471E-11  0.1959E-12  0.7066E-17  0.0000E+00  0.0000E+00  0.0000E+00  0.0000E+00  0.0000E+00
    -13.817  0.0000E+00  0.0000E+00  0.0000E+00  0.0000E+00  0.0000E+00  0.0000E+00  0.0000E+00  0.0000E+00  0.0000E+00
    -13.699  0.0000E+00  0.0000E+00  0.0000E+00  0.0000E+00  0.0000E+00  0.0000E+00  0.0000E+00  0.0000E+00  0.0000E+00
    -13.581  0.0000E+00  0.0000E+00  0.0000E+00  0.0000E+00  0.0000E+00  0.0000E+00  0.0000E+00  0.0000E+00  0.0000E+00
    -13.463  0.7719E-15  0.5822E-15  0.1819E-14  0.8045E-18  0.0000E+00  0.0000E+00  0.0000E+00  0.0000E+00  0.0000E+00
    -13.344  0.5870E-10  0.4427E-10  0.1383E-09  0.6117E-13  0.0000E+00  0.0000E+00  0.0000E+00  0.0000E+00  0.0000E+00
    -13.226  0.2947E-06  0.2223E-06  0.6945E-06  0.3071E-09  0.0000E+00  0.0000E+00  0.0000E+00  0.0000E+00  0.0000E+00
    -13.108  0.1034E-03  0.7799E-04  0.2436E-03  0.1078E-06  0.0000E+00  0.0000E+00  0.0000E+00  0.0000E+00  0.0000E+00