 vasp.6.4.1 05Apr23 (build Jun 16 2023 21:25:53) gamma-only                     
  
 executed on             LinuxIFC date 2024.07.14  18:49:36
 running    8 mpi-ranks, with    1 threads/rank, on    1 nodes
 distrk:  each k-point on    8 cores,    1 groups
 distr:  one band on NCORE=   2 cores,    4 groups


--------------------------------------------------------------------------------------------------------


 INCAR:
   SYSTEM = QM9
   ISMEAR = 0
   SIGMA = 0.1
   ENCUT = 500
   EDIFF = 1E-5
   NELM = 150
   NELMIN = 6
   NELMDL = -20
   ISIF = 2
   ALGO = V
   LREAL = Auto
   ISYM = 0
   LORBIT = 11
   IBRION = 2
   POTIM = 0.2
   EDIFFG = -0.02
   NSW = 10
   LWAVE = .FALSE.
   LCHARG = .FALSE.
   NPAR = 4

 POTCAR:    PAW_PBE C 08Apr2002                   
 POTCAR:    PAW_PBE F 08Apr2002                   
 POTCAR:    PAW_PBE H 15Jun2001                   
 POTCAR:    PAW_PBE N 08Apr2002                   
 POTCAR:    PAW_PBE C 08Apr2002                   
   SHA256 =  253f7b50bb8d59471dbedb8285d89021f4a42ed1a2c5d38a03a736e69125dd95 C/POTCAR              
   COPYR  = (c) Copyright 08Apr2002 Georg Kresse                                                    
   COPYR  = This file is part of the software VASP. Any use, copying, and all other rights are regul
   COPYR  = If you do not have a valid VASP license, you may not use, copy or distribute this file. 
   VRHFIN =C: s2p2                                                                                  
   LEXCH  = PE                                                                                      
   EATOM  =   147.1560 eV,   10.8157 Ry                                                             
                                                                                                    
   TITEL  = PAW_PBE C 08Apr2002                                                                     
   LULTRA =        F    use ultrasoft PP ?                                                          
   IUNSCR =        1    unscreen: 0-lin 1-nonlin 2-no                                               
   RPACOR =    1.200    partial core radius                                                         
   POMASS =   12.011; ZVAL   =    4.000    mass and valenz                                          
   RCORE  =    1.500    outmost cutoff radius                                                       
   RWIGS  =    1.630; RWIGS  =    0.863    wigner-seitz radius (au A)                               
   ENMAX  =  400.000; ENMIN  =  300.000 eV                                                          
   ICORE  =        2    local potential                                                             
   LCOR   =        T    correct aug charges                                                         
   LPAW   =        T    paw PP                                                                      
   EAUG   =  644.873                                                                                
   DEXC   =    0.000                                                                                
   RMAX   =    1.529    core radius for proj-oper                                                   
   RAUG   =    1.300    factor for augmentation sphere                                              
   RDEP   =    1.501    radius for radial grids                                                     
   RDEPT  =    1.300    core radius for aug-charge                                                  
                                                                                                    
   Atomic configuration                                                                             
    4 entries                                                                                       
     n  l   j            E        occ.                                                              
     1  0  0.50      -273.3789   2.0000                                                             
     2  0  0.50       -13.7508   2.0000                                                             
     2  1  0.50        -5.2854   2.0000                                                             
     3  2  1.50        -5.4423   0.0000                                                             
   Description                                                                                      
     l       E           TYP  RCUT    TYP  RCUT                                                     
     0    -13.7508458     23  1.200                                                                 
     0     -8.2022199     23  1.200                                                                 
     1     -5.2854383     23  1.500                                                                 
     1     34.0145650     23  1.500                                                                 
     2     -5.4423304      7  1.500                                                                 
  local pseudopotential read in
  partial core-charges read in
  partial kinetic energy density read in
  atomic valenz-charges read in
  non local Contribution for L=           0  read in
    real space projection operators read in
  non local Contribution for L=           0  read in
    real space projection operators read in
  non local Contribution for L=           1  read in
    real space projection operators read in
  non local Contribution for L=           1  read in
    real space projection operators read in
    PAW grid and wavefunctions read in
 
   number of l-projection  operators is LMAX  =           4
   number of lm-projection operators is LMMAX =           8
 
 POTCAR:    PAW_PBE F 08Apr2002                   
   SHA256 =  53c630871ac675939349fc2b976745ee17808dedc90b5bdde026bc81f0faf456 F/POTCAR              
   COPYR  = (c) Copyright 08Apr2002 Georg Kresse                                                    
   COPYR  = This file is part of the software VASP. Any use, copying, and all other rights are regul
   COPYR  = If you do not have a valid VASP license, you may not use, copy or distribute this file. 
   VRHFIN =F: s2p5                                                                                  
   LEXCH  = PE                                                                                      
   EATOM  =   659.6475 eV,   48.4827 Ry                                                             
                                                                                                    
   TITEL  = PAW_PBE F 08Apr2002                                                                     
   LULTRA =        F    use ultrasoft PP ?                                                          
   IUNSCR =        1    unscreen: 0-lin 1-nonlin 2-no                                               
   RPACOR =    1.200    partial core radius                                                         
   POMASS =   18.998; ZVAL   =    7.000    mass and valenz                                          
   RCORE  =    1.520    outmost cutoff radius                                                       
   RWIGS  =    1.500; RWIGS  =    0.794    wigner-seitz radius (au A)                               
   ENMAX  =  400.000; ENMIN  =  300.000 eV                                                          
   ICORE  =        2    local potential                                                             
   LCOR   =        T    correct aug charges                                                         
   LPAW   =        T    paw PP                                                                      
   EAUG   =  613.614                                                                                
   RMAX   =    1.555    core radius for proj-oper                                                   
   RAUG   =    1.300    factor for augmentation sphere                                              
   RDEP   =    1.539    radius for radial grids                                                     
   RDEPT  =    1.299    core radius for aug-charge                                                  
                                                                                                    
   Atomic configuration                                                                             
    4 entries                                                                                       
     n  l   j            E        occ.                                                              
     1  0  0.50      -663.3661   2.0000                                                             
     2  0  0.50       -29.8995   2.0000                                                             
     2  1  0.50       -11.1114   5.0000                                                             
     3  2  1.50       -10.8847   0.0000                                                             
   Description                                                                                      
     l       E           TYP  RCUT    TYP  RCUT                                                     
     0    -29.8995018     23  1.200                                                                 
     0     -9.5240782     23  1.200                                                                 
     1    -11.1113914     23  1.520                                                                 
     1      1.3605826     23  1.520                                                                 
     2    -10.8846608      7  1.500                                                                 
  local pseudopotential read in
  partial core-charges read in
  partial kinetic energy density read in
  atomic valenz-charges read in
  non local Contribution for L=           0  read in
    real space projection operators read in
  non local Contribution for L=           0  read in
    real space projection operators read in
  non local Contribution for L=           1  read in
    real space projection operators read in
  non local Contribution for L=           1  read in
    real space projection operators read in
    PAW grid and wavefunctions read in
 
   number of l-projection  operators is LMAX  =           4
   number of lm-projection operators is LMMAX =           8
 
 POTCAR:    PAW_PBE H 15Jun2001                   
   SHA256 =  030f79b5d3ab3cf0e668861823c8fb652ff669f3e15e46930bd03bfd63a607b6 H/POTCAR              
   COPYR  = (c) Copyright 15Jun2001 Georg Kresse                                                    
   COPYR  = This file is part of the software VASP. Any use, copying, and all other rights are regul
   COPYR  = If you do not have a valid VASP license, you may not use, copy or distribute this file. 
   VRHFIN =H: ultrasoft test                                                                        
   LEXCH  = PE                                                                                      
   EATOM  =    12.4884 eV,    0.9179 Ry                                                             
                                                                                                    
   TITEL  = PAW_PBE H 15Jun2001                                                                     
   LULTRA =        F    use ultrasoft PP ?                                                          
   IUNSCR =        0    unscreen: 0-lin 1-nonlin 2-no                                               
   RPACOR =    0.000    partial core radius                                                         
   POMASS =    1.000; ZVAL   =    1.000    mass and valenz                                          
   RCORE  =    1.100    outmost cutoff radius                                                       
   RWIGS  =    0.700; RWIGS  =    0.370    wigner-seitz radius (au A)                               
   ENMAX  =  250.000; ENMIN  =  200.000 eV                                                          
   RCLOC  =    0.701    cutoff for local pot                                                        
   LCOR   =        T    correct aug charges                                                         
   LPAW   =        T    paw PP                                                                      
   EAUG   =  400.000                                                                                
   RMAX   =    1.123    core radius for proj-oper                                                   
   RAUG   =    1.200    factor for augmentation sphere                                              
   RDEP   =    1.112    radius for radial grids                                                     
   RDEPT  =    0.926    core radius for aug-charge                                                  
                                                                                                    
   Atomic configuration                                                                             
    2 entries                                                                                       
     n  l   j            E        occ.                                                              
     1  0  0.50        -6.4927   1.0000                                                             
     2  1  0.50        -3.4015   0.0000                                                             
   Description                                                                                      
     l       E           TYP  RCUT    TYP  RCUT                                                     
     0     -6.4927494     23  1.100                                                                 
     0      6.8029130     23  1.100                                                                 
     1     -4.0817478     23  1.100                                                                 
  local pseudopotential read in
  atomic valenz-charges read in
  non local Contribution for L=           0  read in
    real space projection operators read in
  non local Contribution for L=           0  read in
    real space projection operators read in
  non local Contribution for L=           1  read in
    real space projection operators read in
    PAW grid and wavefunctions read in
 
   number of l-projection  operators is LMAX  =           3
   number of lm-projection operators is LMMAX =           5
 
 POTCAR:    PAW_PBE N 08Apr2002                   
   SHA256 =  e053789ff3a61a86a1b75d8a110fcc91f86041011e7b0817c7c99e4e8a6349d7 N/POTCAR              
   COPYR  = (c) Copyright 08Apr2002 Georg Kresse                                                    
   COPYR  = This file is part of the software VASP. Any use, copying, and all other rights are regul
   COPYR  = If you do not have a valid VASP license, you may not use, copy or distribute this file. 
   VRHFIN =N: s2p3                                                                                  
   LEXCH  = PE                                                                                      
   EATOM  =   264.5486 eV,   19.4438 Ry                                                             
                                                                                                    
   TITEL  = PAW_PBE N 08Apr2002                                                                     
   LULTRA =        F    use ultrasoft PP ?                                                          
   IUNSCR =        1    unscreen: 0-lin 1-nonlin 2-no                                               
   RPACOR =    1.200    partial core radius                                                         
   POMASS =   14.001; ZVAL   =    5.000    mass and valenz                                          
   RCORE  =    1.500    outmost cutoff radius                                                       
   RWIGS  =    1.400; RWIGS  =    0.741    wigner-seitz radius (au A)                               
   ENMAX  =  400.000; ENMIN  =  300.000 eV                                                          
   ICORE  =        2    local potential                                                             
   LCOR   =        T    correct aug charges                                                         
   LPAW   =        T    paw PP                                                                      
   EAUG   =  627.112                                                                                
   DEXC   =    0.000                                                                                
   RMAX   =    1.529    core radius for proj-oper                                                   
   RAUG   =    1.300    factor for augmentation sphere                                              
   RDEP   =    1.514    radius for radial grids                                                     
   RDEPT  =    1.338    core radius for aug-charge                                                  
                                                                                                    
   Atomic configuration                                                                             
    4 entries                                                                                       
     n  l   j            E        occ.                                                              
     1  0  0.50      -384.7179   2.0000                                                             
     2  0  0.50       -18.5828   2.0000                                                             
     2  1  0.50        -7.0898   3.0000                                                             
     3  2  1.50        -6.8029   0.0000                                                             
   Description                                                                                      
     l       E           TYP  RCUT    TYP  RCUT                                                     
     0    -18.5828119     23  1.200                                                                 
     0    -13.5018863     23  1.200                                                                 
     1     -7.0897853     23  1.500                                                                 
     1      9.5240782     23  1.500                                                                 
     2     -6.8029130      7  1.500                                                                 
  local pseudopotential read in
  partial core-charges read in
  partial kinetic energy density read in
  atomic valenz-charges read in
  non local Contribution for L=           0  read in
    real space projection operators read in
  non local Contribution for L=           0  read in
    real space projection operators read in
  non local Contribution for L=           1  read in
    real space projection operators read in
  non local Contribution for L=           1  read in
    real space projection operators read in
    PAW grid and wavefunctions read in
 
   number of l-projection  operators is LMAX  =           4
   number of lm-projection operators is LMMAX =           8
 
 Optimization of the real space projectors (new method)

 maximal supplied QI-value         = 25.13
 optimisation between [QCUT,QGAM] = [ 11.31, 22.87] = [ 35.82,146.48] Ry 
 Optimized for a Real-space Cutoff    1.00 Angstroem

   l    n(q)    QCUT    max X(q) W(low)/X(q) W(high)/X(q)  e(spline) 
   0      7    11.310   115.676    0.43E-03    0.13E-02    0.19E-06
   0      7    11.310    87.132    0.43E-03    0.13E-02    0.18E-06
   1      6    11.310     4.429    0.42E-03    0.74E-03    0.11E-06
   1      6    11.310     2.733    0.34E-03    0.55E-03    0.92E-07
 Optimization of the real space projectors (new method)

 maximal supplied QI-value         = 24.76
 optimisation between [QCUT,QGAM] = [ 11.39, 22.77] = [ 36.31,145.25] Ry 
 Optimized for a Real-space Cutoff    1.00 Angstroem

   l    n(q)    QCUT    max X(q) W(low)/X(q) W(high)/X(q)  e(spline) 
   0      7    11.387    14.049    0.29E-03    0.95E-03    0.11E-06
   0      7    11.387     8.945    0.38E-03    0.13E-02    0.15E-06
   1      6    11.387     7.086    0.33E-03    0.10E-02    0.16E-06
   1      6    11.387     6.747    0.33E-03    0.86E-03    0.15E-06
 Optimization of the real space projectors (new method)

 maximal supplied QI-value         = 34.20
 optimisation between [QCUT,QGAM] = [ 11.29, 22.57] = [ 35.68,142.71] Ry 
 Optimized for a Real-space Cutoff    1.16 Angstroem

   l    n(q)    QCUT    max X(q) W(low)/X(q) W(high)/X(q)  e(spline) 
   0      8    11.287    19.460    0.40E-03    0.73E-03    0.16E-06
   0      8    11.287    12.209    0.38E-03    0.70E-03    0.15E-06
   1      7    11.287     4.655    0.22E-03    0.25E-04    0.22E-06
 Optimization of the real space projectors (new method)

 maximal supplied QI-value         = 25.13
 optimisation between [QCUT,QGAM] = [ 11.31, 22.87] = [ 35.82,146.48] Ry 
 Optimized for a Real-space Cutoff    1.27 Angstroem

   l    n(q)    QCUT    max X(q) W(low)/X(q) W(high)/X(q)  e(spline) 
   0      9    11.310    79.467    0.75E-04    0.16E-03    0.36E-06
   0      9    11.310    66.151    0.74E-04    0.16E-03    0.36E-06
   1      8    11.310    17.416    0.35E-03    0.12E-03    0.95E-06
   1      8    11.310    12.382    0.37E-03    0.13E-03    0.98E-06
  PAW_PBE C 08Apr2002                   :
 energy of atom  1       EATOM= -147.1560
 kinetic energy error for atom=    0.0076 (will be added to EATOM!!)
  PAW_PBE F 08Apr2002                   :
 energy of atom  2       EATOM= -659.6475
 kinetic energy error for atom=    0.0354 (will be added to EATOM!!)
  PAW_PBE H 15Jun2001                   :
 energy of atom  3       EATOM=  -12.4884
 kinetic energy error for atom=    0.0020 (will be added to EATOM!!)
  PAW_PBE N 08Apr2002                   :
 energy of atom  4       EATOM= -264.5486
 kinetic energy error for atom=    0.0138 (will be added to EATOM!!)
 
 
 POSCAR: Generated POSCAR
  positions in cartesian coordinates
  No initial velocities read in
 exchange correlation table for  LEXCH =        8
   RHO(1)=    0.500       N(1)  =     2000
   RHO(2)=  100.500       N(2)  =     4000

 VTST: version 4.1, (05/19/21)

 CHAIN: initializing optimizer
 
 OPT: Using VASP Conjugate-Gradient optimizer
 CHAIN: Read ICHAIN            0
 
 POSCAR: Generated POSCAR
  positions in cartesian coordinates
  No initial velocities read in
 


--------------------------------------------------------------------------------------------------------


 ion  position               nearest neighbor table
   1  0.500  0.709  0.543-  10 1.09   9 1.09   8 1.10   2 1.50
   2  0.500  0.580  0.546-   3 1.38   6 1.40   1 1.50
   3  0.499  0.518  0.442-   7 1.35   2 1.38   4 1.40
   4  0.499  0.398  0.442-  16 1.33  15 1.38   3 1.40
   5  0.501  0.398  0.644-  13 1.09  16 1.34   6 1.39
   6  0.500  0.517  0.650-  14 1.08   5 1.39   2 1.40
   7  0.500  0.572  0.337-   3 1.35
   8  0.613  0.741  0.496-   1 1.10
   9  0.387  0.742  0.496-   1 1.09
  10  0.500  0.744  0.632-   1 1.09
  11  0.534  0.380  0.265-  15 1.01
  12  0.528  0.256  0.344-  15 1.01
  13  0.502  0.347  0.724-   5 1.09
  14  0.500  0.559  0.735-   6 1.08
  15  0.491  0.339  0.337-  11 1.01  12 1.01   4 1.38
  16  0.501  0.339  0.543-   4 1.33   5 1.34
 

IMPORTANT INFORMATION: All symmetrisations will be switched off!
NOSYMM: (Re-)initialisation of all symmetry stuff for point group C_1.


----------------------------------------------------------------------------------------

                                     Primitive cell                                     

  volume of cell :    1028.8093

  direct lattice vectors                    reciprocal lattice vectors
     7.757600000  0.000000000  0.000000000     0.128905847  0.000000000  0.000000000
     0.000000000 11.706200000  0.000000000     0.000000000  0.085424818  0.000000000
     0.000000000  0.000000000 11.329000000     0.000000000  0.000000000  0.088269044

  length of vectors
     7.757600000 11.706200000 11.329000000     0.128905847  0.085424818  0.088269044

  position of ions in fractional coordinates (direct lattice)
     0.499961328  0.708726999  0.542889929
     0.499574611  0.580230989  0.545538000
     0.499123440  0.518033179  0.442051373
     0.499071878  0.398199245  0.441945450
     0.500670310  0.398293212  0.643799100
     0.499651954  0.516538245  0.650401624
     0.500154687  0.572226683  0.336861153
     0.613282458  0.741444705  0.496213258
     0.386717542  0.741709521  0.496336835
     0.500180468  0.743725547  0.632227028
     0.534211612  0.380037929  0.264807132
     0.528114365  0.256274453  0.343799100
     0.501830463  0.347362936  0.724035661
     0.499883985  0.559464216  0.735192868
     0.491337527  0.338666689  0.337064172
     0.500928122  0.339264663  0.542704564

  ion indices of the primitive-cell ions
   primitive index   ion index
                 1           1
                 2           2
                 3           3
                 4           4
                 5           5
                 6           6
                 7           7
                 8           8
                 9           9
                10          10
                11          11
                12          12
                13          13
                14          14
                15          15
                16          16

----------------------------------------------------------------------------------------

 
 
 KPOINTS: K-Spacing Value to Generate K-Mesh: 0.00

Automatic generation of k-mesh.
 Grid dimensions read from file:
 generate k-points for:    1    1    1

 Generating k-lattice:

  Cartesian coordinates                     Fractional coordinates (reciprocal lattice)
     0.128905847  0.000000000  0.000000000     1.000000000  0.000000000  0.000000000
     0.000000000  0.085424818  0.000000000     0.000000000  1.000000000  0.000000000
     0.000000000  0.000000000  0.088269044     0.000000000  0.000000000  1.000000000

  Length of vectors
     0.128905847  0.085424818  0.088269044

  Shift w.r.t. Gamma in fractional coordinates (k-lattice)
     0.000000000  0.000000000  0.000000000

 
 Subroutine IBZKPT returns following result:
 ===========================================
 
 Found      1 irreducible k-points:
 
 Following reciprocal coordinates:
            Coordinates               Weight
  0.000000  0.000000  0.000000      1.000000
 
 Following cartesian coordinates:
            Coordinates               Weight
  0.000000  0.000000  0.000000      1.000000
 


--------------------------------------------------------------------------------------------------------




 Dimension of arrays:
   k-points           NKPTS =      1   k-points in BZ     NKDIM =      1   number of bands    NBANDS=     36
   number of dos      NEDOS =    301   number of ions     NIONS =     16
   non local maximal  LDIM  =      4   non local SUM 2l+1 LMDIM =      8
   total plane-waves  NPLWV = 172032
   max r-space proj   IRMAX =   1490   max aug-charges    IRDMAX=   2325
   dimension x,y,z NGX =    42 NGY =   64 NGZ =   64
   dimension x,y,z NGXF=    84 NGYF=  128 NGZF=  128
   support grid    NGXF=    84 NGYF=  128 NGZF=  128
   ions per type =               6   1   7   2
   NGX,Y,Z   is equivalent  to a cutoff of   9.00,  9.09,  9.39 a.u.
   NGXF,Y,Z  is equivalent  to a cutoff of  18.00, 18.18, 18.78 a.u.

 SYSTEM =  QM9                                     
 POSCAR =  Generated POSCAR                        

 Startparameter for this run:
   NWRITE =      2    write-flag & timer
   PREC   = normal    normal or accurate (medium, high low for compatibility)
   ISTART =      0    job   : 0-new  1-cont  2-samecut
   ICHARG =      2    charge: 1-file 2-atom 10-const
   ISPIN  =      1    spin polarized calculation?
   LNONCOLLINEAR =      F non collinear calculations
   LSORBIT =      F    spin-orbit coupling
   INIWAV =      1    electr: 0-lowe 1-rand  2-diag
   LASPH  =      F    aspherical Exc in radial PAW
 Electronic Relaxation 1
   ENCUT  =  500.0 eV  36.75 Ry    6.06 a.u.  14.14 21.34 20.66*2*pi/ulx,y,z
   ENINI  =  500.0     initial cutoff
   ENAUG  =  644.9 eV  augmentation charge cutoff
   NELM   =    150;   NELMIN=  6; NELMDL=-20     # of ELM steps 
   EDIFF  = 0.1E-04   stopping-criterion for ELM
   LREAL  =      T    real-space projection
   NLSPLINE    = F    spline interpolate recip. space projectors
   LCOMPAT=      F    compatible to vasp.4.4
   GGA_COMPAT  = T    GGA compatible to vasp.4.4-vasp.4.6
   LMAXPAW     = -100 max onsite density
   LMAXMIX     =    2 max onsite mixed and CHGCAR
   VOSKOWN=      0    Vosko Wilk Nusair interpolation
   ROPT   =   -0.00050  -0.00050  -0.00050  -0.00050
 Ionic relaxation
   EDIFFG = -.2E-01   stopping-criterion for IOM
   NSW    =     10    number of steps for IOM
   NBLOCK =      1;   KBLOCK =     10    inner block; outer block 
   IBRION =      2    ionic relax: 0-MD 1-quasi-New 2-CG
   NFREE  =      1    steps in history (QN), initial steepest desc. (CG)
   ISIF   =      2    stress and relaxation
   IWAVPR =     11    prediction:  0-non 1-charg 2-wave 3-comb
   ISYM   =      0    0-nonsym 1-usesym 2-fastsym
   LCORR  =      T    Harris-Foulkes like correction to forces

   POTIM  = 0.2000    time-step for ionic-motion
   TEIN   =    0.0    initial temperature
   TEBEG  =    0.0;   TEEND  =   0.0 temperature during run
   SMASS  =  -3.00    Nose mass-parameter (am)
   estimated Nose-frequenzy (Omega)   =  0.10E-29 period in steps = 0.31E+47 mass=  -0.138E-26a.u.
   SCALEE = 1.0000    scale energy and forces
   NPACO  =    256;   APACO  = 10.0  distance and # of slots for P.C.
   PSTRESS=    0.0 pullay stress

  Mass of Ions in am
   POMASS =  12.01 19.00  1.00 14.00
  Ionic Valenz
   ZVAL   =   4.00  7.00  1.00  5.00
  Atomic Wigner-Seitz radii
   RWIGS  =  -1.00 -1.00 -1.00 -1.00
  virtual crystal weights 
   VCA    =   1.00  1.00  1.00  1.00
   NELECT =      48.0000    total number of electrons
   NUPDOWN=      -1.0000    fix difference up-down

 DOS related values:
   EMIN   =  10.00;   EMAX   =-10.00  energy-range for DOS
   EFERMI =   0.00;   METHOD = LEGACY      
   ISMEAR =     0;   SIGMA  =   0.10  broadening in eV -4-tet -1-fermi 0-gaus

 Electronic relaxation 2 (details)
   IALGO  =     48    algorithm
   LDIAG  =      T    sub-space diagonalisation (order eigenvalues)
   LSUBROT=      F    optimize rotation matrix (better conditioning)
   TURBO    =      0    0=normal 1=particle mesh
   IRESTART =      0    0=no restart 2=restart with 2 vectors
   NREBOOT  =      0    no. of reboots
   NMIN     =      0    reboot dimension
   EREF     =   0.00    reference energy to select bands
   IMIX   =      4    mixing-type and parameters
     AMIX     =   0.40;   BMIX     =  1.00
     AMIX_MAG =   1.60;   BMIX_MAG =  1.00
     AMIN     =   0.10
     WC   =   100.;   INIMIX=   1;  MIXPRE=   1;  MAXMIX= -45

 Intra band minimization:
   WEIMIN = 0.0010     energy-eigenvalue tresh-hold
   EBREAK =  0.69E-07  absolut break condition
   DEPER  =   0.30     relativ break condition  

   TIME   =   0.40     timestep for ELM

  volume/ion in A,a.u.               =      64.30       433.92
  Fermi-wavevector in a.u.,A,eV,Ry     =   0.589355  1.113719  4.725838  0.347339
  Thomas-Fermi vector in A             =   1.636976
 
 Write flags
   LWAVE        =      F    write WAVECAR
   LDOWNSAMPLE  =      F    k-point downsampling of WAVECAR
   LCHARG       =      F    write CHGCAR
   LVTOT        =      F    write LOCPOT, total local potential
   LVHAR        =      F    write LOCPOT, Hartree potential only
   LELF         =      F    write electronic localiz. function (ELF)
   LORBIT       =     11    0 simple, 1 ext, 2 COOP (PROOUT), +10 PAW based schemes


 Dipole corrections
   LMONO  =      F    monopole corrections only (constant potential shift)
   LDIPOL =      F    correct potential (dipole corrections)
   IDIPOL =      0    1-x, 2-y, 3-z, 4-all directions 
   EPSILON=  1.0000000 bulk dielectric constant

 Exchange correlation treatment:
   GGA     =    --    GGA type
   LEXCH   =     8    internal setting for exchange type
   LIBXC   =     F    Libxc                    
   VOSKOWN =     0    Vosko Wilk Nusair interpolation
   LHFCALC =     F    Hartree Fock is set to
   LHFONE  =     F    Hartree Fock one center treatment
   AEXX    =    0.0000 exact exchange contribution

 Linear response parameters
   LEPSILON=     F    determine dielectric tensor
   LRPA    =     F    only Hartree local field effects (RPA)
   LNABLA  =     F    use nabla operator in PAW spheres
   LVEL    =     F    velocity operator in full k-point grid
   CSHIFT  =0.1000    complex shift for real part using Kramers Kronig
   OMEGAMAX=  -1.0    maximum frequency
   DEG_THRESHOLD= 0.2000000E-02 threshold for treating states as degnerate
   RTIME   =   -0.100 relaxation time in fs
  (WPLASMAI=    0.000 imaginary part of plasma frequency in eV, 0.658/RTIME)
   DFIELD  = 0.0000000 0.0000000 0.0000000 field for delta impulse in time
 
  Optional k-point grid parameters
   LKPOINTS_OPT  =     F    use optional k-point grid
   KPOINTS_OPT_MODE=     1    mode for optional k-point grid
 
 Orbital magnetization related:
   ORBITALMAG=     F  switch on orbital magnetization
   LCHIMAG   =     F  perturbation theory with respect to B field
   DQ        =  0.001000  dq finite difference perturbation B field
   LLRAUG    =     F  two centre corrections for induced B field
   LBONE     =     F  B-component reconstruction in AE one-centre
   LVGVCALC  =     T  calculate vGv susceptibility
   LVGVAPPL  =     F  apply vGv susceptibility instead of pGv for G=0

 Random number generation:
   RANDOM_GENERATOR = DEFAULT
   PCG_SEED         = not used


--------------------------------------------------------------------------------------------------------


 conjugate gradient relaxation of ions
 charge density and potential will be updated during run
 non-spin polarized calculation
 RMM-DIIS sequential band-by-band
 perform sub-space diagonalisation
    before iterative eigenvector-optimisation
 modified Broyden-mixing scheme, WC =      100.0
 initial mixing is a Kerker type mixing with AMIX =  0.4000 and BMIX =      1.0000
 Hartree-type preconditioning will be used
 using additional bands           12
 real space projection scheme for non local part
 use partial core corrections
 calculate Harris-corrections to forces 
   (improved forces if not selfconsistent)
 use gradient corrections 
 use of overlap-Matrix (Vanderbilt PP)
 Gauss-broadening in eV      SIGMA  =   0.10


--------------------------------------------------------------------------------------------------------


  energy-cutoff  :      500.00
  volume of cell :     1028.81
      direct lattice vectors                 reciprocal lattice vectors
     7.757600000  0.000000000  0.000000000     0.128905847  0.000000000  0.000000000
     0.000000000 11.706200000  0.000000000     0.000000000  0.085424818  0.000000000
     0.000000000  0.000000000 11.329000000     0.000000000  0.000000000  0.088269044

  length of vectors
     7.757600000 11.706200000 11.329000000     0.128905847  0.085424818  0.088269044


 
 k-points in units of 2pi/SCALE and weight: K-Spacing Value to Generate K-Mesh: 0.00
   0.00000000  0.00000000  0.00000000       1.000
 
 k-points in reciprocal lattice and weights: K-Spacing Value to Generate K-Mesh: 0.00
   0.00000000  0.00000000  0.00000000       1.000
 
 position of ions in fractional coordinates (direct lattice) 
   0.49996133  0.70872700  0.54288993
   0.49957461  0.58023099  0.54553800
   0.49912344  0.51803318  0.44205137
   0.49907188  0.39819924  0.44194545
   0.50067031  0.39829321  0.64379910
   0.49965195  0.51653824  0.65040162
   0.50015469  0.57222668  0.33686115
   0.61328246  0.74144470  0.49621326
   0.38671754  0.74170952  0.49633683
   0.50018047  0.74372555  0.63222703
   0.53421161  0.38003793  0.26480713
   0.52811437  0.25627445  0.34379910
   0.50183046  0.34736294  0.72403566
   0.49988398  0.55946422  0.73519287
   0.49133753  0.33866669  0.33706417
   0.50092812  0.33926466  0.54270456
 
 position of ions in cartesian coordinates  (Angst):
   3.87850000  8.29650000  6.15040000
   3.87550000  6.79230000  6.18040000
   3.87200000  6.06420000  5.00800000
   3.87160000  4.66140000  5.00680000
   3.88400000  4.66250000  7.29360000
   3.87610000  6.04670000  7.36840000
   3.88000000  6.69860000  3.81630000
   4.75760000  8.67950000  5.62160000
   3.00000000  8.68260000  5.62300000
   3.88020000  8.70620000  7.16250000
   4.14420000  4.44880000  3.00000000
   4.09690000  3.00000000  3.89490000
   3.89300000  4.06630000  8.20260000
   3.87790000  6.54920000  8.32900000
   3.81160000  3.96450000  3.81860000
   3.88600000  3.97150000  6.14830000
 


--------------------------------------------------------------------------------------------------------


 use parallel FFT for orbitals z direction half grid
 k-point   1 :   0.0000 0.0000 0.0000  plane waves:   13070

 maximum and minimum number of plane-waves per node :      6540     6530

 maximum number of plane-waves:     13070
 maximum index in each direction: 
   IXMAX=   14   IYMAX=   21   IZMAX=   20
   IXMIN=  -14   IYMIN=  -21   IZMIN=    0


 real space projection operators:
  total allocation   :        769.38 KBytes
  max/ min on nodes  :        386.47        382.91


 parallel 3D FFT for wavefunctions:
    minimum data exchange during FFTs selected (reduces bandwidth)
 parallel 3D FFT for charge:
    minimum data exchange during FFTs selected (reduces bandwidth)


 total amount of memory used by VASP MPI-rank0    55970. kBytes
=======================================================================

   base      :      30000. kBytes
   nonlr-proj:        470. kBytes
   fftplans  :       7948. kBytes
   grid      :      16595. kBytes
   one-center:         12. kBytes
   wavefun   :        945. kBytes
 
     INWAV:  cpu time      0.0000: real time      0.0000
 Broyden mixing: mesh for mixing (old mesh)
   NGX = 29   NGY = 43   NGZ = 41
  (NGX  = 84   NGY  =128   NGZ  =128)
  gives a total of  51127 points

 initial charge density was supplied:
 charge density of overlapping atoms calculated
 number of electron      48.0000000 magnetization 
 keeping initial charge density in first step


--------------------------------------------------------------------------------------------------------


 Maximum index for non-local projection operator          697
 Maximum index for augmentation-charges          265 (set IRDMAX)


--------------------------------------------------------------------------------------------------------


 First call to EWALD:  gamma=   0.176
 Maximum number of real-space cells 3x 2x 3
 Maximum number of reciprocal cells 2x 3x 3

    FEWALD:  cpu time      0.0014: real time      0.0014


--------------------------------------- Ionic step        1  -------------------------------------------




--------------------------------------- Iteration      1(   1)  ---------------------------------------


    POTLOK:  cpu time      0.1853: real time      0.2091
    SETDIJ:  cpu time      0.0035: real time      0.0316
    EDDIAG:  cpu time      0.1394: real time      0.3560
  RMM-DIIS:  cpu time      0.1798: real time      0.1826
    ORTHCH:  cpu time      0.0053: real time      0.0054
       DOS:  cpu time      0.0009: real time      0.0036
    --------------------------------------------
      LOOP:  cpu time      0.5144: real time      0.7883

 eigenvalue-minimisations  :    36
 total energy-change (2. order) : 0.7945877E+03  (-0.1092004E+04)
 number of electron      48.0000000 magnetization 
 augmentation part       48.0000000 magnetization 

 Free energy of the ion-electron system (eV)
  ---------------------------------------------------
  alpha Z        PSCENC =         9.72596956
  Ewald energy   TEWEN  =      1916.89714348
  -Hartree energ DENC   =     -3547.42961657
  -exchange      EXHF   =         0.00000000
  -V(xc)+E(xc)   XCENC  =       171.54299614
  PAW double counting   =      1615.14374411    -1626.10587105
  entropy T*S    EENTRO =        -0.00020772
  eigenvalues    EBANDS =        95.83625709
  atomic energy  EATOM  =      2158.97731088
  Solvation  Ediel_sol  =         0.00000000
  ---------------------------------------------------
  free energy    TOTEN  =       794.58772593 eV

  energy without entropy =      794.58793365  energy(sigma->0) =      794.58782979


--------------------------------------------------------------------------------------------------------




--------------------------------------- Iteration      1(   2)  ---------------------------------------


    EDDIAG:  cpu time      0.0587: real time      0.0673
  RMM-DIIS:  cpu time      0.1746: real time      0.1772
    ORTHCH:  cpu time      0.0054: real time      0.0055
       DOS:  cpu time      0.0004: real time      0.0004
    --------------------------------------------
      LOOP:  cpu time      0.2391: real time      0.2504

 eigenvalue-minimisations  :    36
 total energy-change (2. order) :-0.3934384E+03  (-0.4411161E+03)
 number of electron      48.0000000 magnetization 
 augmentation part       48.0000000 magnetization 

 Free energy of the ion-electron system (eV)
  ---------------------------------------------------
  alpha Z        PSCENC =         9.72596956
  Ewald energy   TEWEN  =      1916.89714348
  -Hartree energ DENC   =     -3547.42961657
  -exchange      EXHF   =         0.00000000
  -V(xc)+E(xc)   XCENC  =       171.54299614
  PAW double counting   =      1615.14374411    -1626.10587105
  entropy T*S    EENTRO =        -0.00000000
  eigenvalues    EBANDS =      -297.60239690
  atomic energy  EATOM  =      2158.97731088
  Solvation  Ediel_sol  =         0.00000000
  ---------------------------------------------------
  free energy    TOTEN  =       401.14927966 eV

  energy without entropy =      401.14927966  energy(sigma->0) =      401.14927966


--------------------------------------------------------------------------------------------------------




--------------------------------------- Iteration      1(   3)  ---------------------------------------


    EDDIAG:  cpu time      0.0769: real time      0.0784
  RMM-DIIS:  cpu time      0.1680: real time      0.1705
    ORTHCH:  cpu time      0.0053: real time      0.0054
       DOS:  cpu time      0.0006: real time      0.0006
    --------------------------------------------
      LOOP:  cpu time      0.2507: real time      0.2548

 eigenvalue-minimisations  :    36
 total energy-change (2. order) :-0.1632958E+03  (-0.2572672E+03)
 number of electron      48.0000000 magnetization 
 augmentation part       48.0000000 magnetization 

 Free energy of the ion-electron system (eV)
  ---------------------------------------------------
  alpha Z        PSCENC =         9.72596956
  Ewald energy   TEWEN  =      1916.89714348
  -Hartree energ DENC   =     -3547.42961657
  -exchange      EXHF   =         0.00000000
  -V(xc)+E(xc)   XCENC  =       171.54299614
  PAW double counting   =      1615.14374411    -1626.10587105
  entropy T*S    EENTRO =        -0.12620694
  eigenvalues    EBANDS =      -460.77201077
  atomic energy  EATOM  =      2158.97731088
  Solvation  Ediel_sol  =         0.00000000
  ---------------------------------------------------
  free energy    TOTEN  =       237.85345884 eV

  energy without entropy =      237.97966579  energy(sigma->0) =      237.91656231


--------------------------------------------------------------------------------------------------------




--------------------------------------- Iteration      1(   4)  ---------------------------------------


    EDDIAG:  cpu time      0.0787: real time      0.0815
  RMM-DIIS:  cpu time      0.1668: real time      0.1692
    ORTHCH:  cpu time      0.0050: real time      0.0051
       DOS:  cpu time      0.0005: real time      0.0005
    --------------------------------------------
      LOOP:  cpu time      0.2511: real time      0.2563

 eigenvalue-minimisations  :    36
 total energy-change (2. order) :-0.1618661E+03  (-0.1681138E+03)
 number of electron      48.0000000 magnetization 
 augmentation part       48.0000000 magnetization 

 Free energy of the ion-electron system (eV)
  ---------------------------------------------------
  alpha Z        PSCENC =         9.72596956
  Ewald energy   TEWEN  =      1916.89714348
  -Hartree energ DENC   =     -3547.42961657
  -exchange      EXHF   =         0.00000000
  -V(xc)+E(xc)   XCENC  =       171.54299614
  PAW double counting   =      1615.14374411    -1626.10587105
  entropy T*S    EENTRO =        -0.06738665
  eigenvalues    EBANDS =      -622.69692899
  atomic energy  EATOM  =      2158.97731088
  Solvation  Ediel_sol  =         0.00000000
  ---------------------------------------------------
  free energy    TOTEN  =        75.98736092 eV

  energy without entropy =       76.05474757  energy(sigma->0) =       76.02105424


--------------------------------------------------------------------------------------------------------




--------------------------------------- Iteration      1(   5)  ---------------------------------------


    EDDIAG:  cpu time      0.0783: real time      0.0799
  RMM-DIIS:  cpu time      0.1664: real time      0.1689
    ORTHCH:  cpu time      0.0046: real time      0.0047
       DOS:  cpu time      0.0005: real time      0.0005
    --------------------------------------------
      LOOP:  cpu time      0.2498: real time      0.2540

 eigenvalue-minimisations  :    36
 total energy-change (2. order) :-0.9012996E+02  (-0.8065747E+02)
 number of electron      48.0000000 magnetization 
 augmentation part       48.0000000 magnetization 

 Free energy of the ion-electron system (eV)
  ---------------------------------------------------
  alpha Z        PSCENC =         9.72596956
  Ewald energy   TEWEN  =      1916.89714348
  -Hartree energ DENC   =     -3547.42961657
  -exchange      EXHF   =         0.00000000
  -V(xc)+E(xc)   XCENC  =       171.54299614
  PAW double counting   =      1615.14374411    -1626.10587105
  entropy T*S    EENTRO =        -0.10550862
  eigenvalues    EBANDS =      -712.78876261
  atomic energy  EATOM  =      2158.97731088
  Solvation  Ediel_sol  =         0.00000000
  ---------------------------------------------------
  free energy    TOTEN  =       -14.14259468 eV

  energy without entropy =      -14.03708605  energy(sigma->0) =      -14.08984037


--------------------------------------------------------------------------------------------------------




--------------------------------------- Iteration      1(   6)  ---------------------------------------


    EDDIAG:  cpu time      0.0802: real time      0.0816
  RMM-DIIS:  cpu time      0.1640: real time      0.1670
    ORTHCH:  cpu time      0.0050: real time      0.0050
       DOS:  cpu time      0.0002: real time      0.0002
    --------------------------------------------
      LOOP:  cpu time      0.2493: real time      0.2539

 eigenvalue-minimisations  :    36
 total energy-change (2. order) :-0.5809693E+02  (-0.4433790E+02)
 number of electron      48.0000000 magnetization 
 augmentation part       48.0000000 magnetization 

 Free energy of the ion-electron system (eV)
  ---------------------------------------------------
  alpha Z        PSCENC =         9.72596956
  Ewald energy   TEWEN  =      1916.89714348
  -Hartree energ DENC   =     -3547.42961657
  -exchange      EXHF   =         0.00000000
  -V(xc)+E(xc)   XCENC  =       171.54299614
  PAW double counting   =      1615.14374411    -1626.10587105
  entropy T*S    EENTRO =        -0.00000001
  eigenvalues    EBANDS =      -770.99120494
  atomic energy  EATOM  =      2158.97731088
  Solvation  Ediel_sol  =         0.00000000
  ---------------------------------------------------
  free energy    TOTEN  =       -72.23952839 eV

  energy without entropy =      -72.23952838  energy(sigma->0) =      -72.23952839


--------------------------------------------------------------------------------------------------------




--------------------------------------- Iteration      1(   7)  ---------------------------------------


    EDDIAG:  cpu time      0.0786: real time      0.0803
  RMM-DIIS:  cpu time      0.1706: real time      0.1732
    ORTHCH:  cpu time      0.0046: real time      0.0046
       DOS:  cpu time      0.0003: real time      0.0003
    --------------------------------------------
      LOOP:  cpu time      0.2541: real time      0.2584

 eigenvalue-minimisations  :    36
 total energy-change (2. order) :-0.2664522E+02  (-0.2135835E+02)
 number of electron      48.0000000 magnetization 
 augmentation part       48.0000000 magnetization 

 Free energy of the ion-electron system (eV)
  ---------------------------------------------------
  alpha Z        PSCENC =         9.72596956
  Ewald energy   TEWEN  =      1916.89714348
  -Hartree energ DENC   =     -3547.42961657
  -exchange      EXHF   =         0.00000000
  -V(xc)+E(xc)   XCENC  =       171.54299614
  PAW double counting   =      1615.14374411    -1626.10587105
  entropy T*S    EENTRO =        -0.00000000
  eigenvalues    EBANDS =      -797.63642971
  atomic energy  EATOM  =      2158.97731088
  Solvation  Ediel_sol  =         0.00000000
  ---------------------------------------------------
  free energy    TOTEN  =       -98.88475316 eV

  energy without entropy =      -98.88475316  energy(sigma->0) =      -98.88475316


--------------------------------------------------------------------------------------------------------




--------------------------------------- Iteration      1(   8)  ---------------------------------------


    EDDIAG:  cpu time      0.0710: real time      0.0722
  RMM-DIIS:  cpu time      0.1723: real time      0.1749
    ORTHCH:  cpu time      0.0047: real time      0.0047
       DOS:  cpu time      0.0004: real time      0.0004
    --------------------------------------------
      LOOP:  cpu time      0.2484: real time      0.2522

 eigenvalue-minimisations  :    36
 total energy-change (2. order) :-0.8203351E+01  (-0.6711662E+01)
 number of electron      48.0000000 magnetization 
 augmentation part       48.0000000 magnetization 

 Free energy of the ion-electron system (eV)
  ---------------------------------------------------
  alpha Z        PSCENC =         9.72596956
  Ewald energy   TEWEN  =      1916.89714348
  -Hartree energ DENC   =     -3547.42961657
  -exchange      EXHF   =         0.00000000
  -V(xc)+E(xc)   XCENC  =       171.54299614
  PAW double counting   =      1615.14374411    -1626.10587105
  entropy T*S    EENTRO =        -0.00000000
  eigenvalues    EBANDS =      -805.83978082
  atomic energy  EATOM  =      2158.97731088
  Solvation  Ediel_sol  =         0.00000000
  ---------------------------------------------------
  free energy    TOTEN  =      -107.08810426 eV

  energy without entropy =     -107.08810426  energy(sigma->0) =     -107.08810426


--------------------------------------------------------------------------------------------------------




--------------------------------------- Iteration      1(   9)  ---------------------------------------


    EDDIAG:  cpu time      0.0679: real time      0.0692
  RMM-DIIS:  cpu time      0.1754: real time      0.1780
    ORTHCH:  cpu time      0.0047: real time      0.0048
       DOS:  cpu time      0.0004: real time      0.0004
    --------------------------------------------
      LOOP:  cpu time      0.2484: real time      0.2524

 eigenvalue-minimisations  :    36
 total energy-change (2. order) :-0.2276990E+01  (-0.2093828E+01)
 number of electron      48.0000000 magnetization 
 augmentation part       48.0000000 magnetization 

 Free energy of the ion-electron system (eV)
  ---------------------------------------------------
  alpha Z        PSCENC =         9.72596956
  Ewald energy   TEWEN  =      1916.89714348
  -Hartree energ DENC   =     -3547.42961657
  -exchange      EXHF   =         0.00000000
  -V(xc)+E(xc)   XCENC  =       171.54299614
  PAW double counting   =      1615.14374411    -1626.10587105
  entropy T*S    EENTRO =        -0.00000000
  eigenvalues    EBANDS =      -808.11677042
  atomic energy  EATOM  =      2158.97731088
  Solvation  Ediel_sol  =         0.00000000
  ---------------------------------------------------
  free energy    TOTEN  =      -109.36509386 eV

  energy without entropy =     -109.36509386  energy(sigma->0) =     -109.36509386


--------------------------------------------------------------------------------------------------------




--------------------------------------- Iteration      1(  10)  ---------------------------------------


    EDDIAG:  cpu time      0.0765: real time      0.0784
  RMM-DIIS:  cpu time      0.1776: real time      0.1803
    ORTHCH:  cpu time      0.0029: real time      0.0485
       DOS:  cpu time      0.0013: real time      0.0013
    --------------------------------------------
      LOOP:  cpu time      0.2583: real time      0.3086

 eigenvalue-minimisations  :    36
 total energy-change (2. order) :-0.7110592E+00  (-0.6447228E+00)
 number of electron      48.0000000 magnetization 
 augmentation part       48.0000000 magnetization 

 Free energy of the ion-electron system (eV)
  ---------------------------------------------------
  alpha Z        PSCENC =         9.72596956
  Ewald energy   TEWEN  =      1916.89714348
  -Hartree energ DENC   =     -3547.42961657
  -exchange      EXHF   =         0.00000000
  -V(xc)+E(xc)   XCENC  =       171.54299614
  PAW double counting   =      1615.14374411    -1626.10587105
  entropy T*S    EENTRO =        -0.00000000
  eigenvalues    EBANDS =      -808.82782963
  atomic energy  EATOM  =      2158.97731088
  Solvation  Ediel_sol  =         0.00000000
  ---------------------------------------------------
  free energy    TOTEN  =      -110.07615307 eV

  energy without entropy =     -110.07615307  energy(sigma->0) =     -110.07615307


--------------------------------------------------------------------------------------------------------




--------------------------------------- Iteration      1(  11)  ---------------------------------------


    EDDIAG:  cpu time      0.0762: real time      0.0782
  RMM-DIIS:  cpu time      0.1722: real time      0.1755
    ORTHCH:  cpu time      0.0048: real time      0.0049
       DOS:  cpu time      0.0003: real time      0.0003
    --------------------------------------------
      LOOP:  cpu time      0.2536: real time      0.2589

 eigenvalue-minimisations  :    36
 total energy-change (2. order) :-0.2228051E+00  (-0.2155331E+00)
 number of electron      48.0000000 magnetization 
 augmentation part       48.0000000 magnetization 

 Free energy of the ion-electron system (eV)
  ---------------------------------------------------
  alpha Z        PSCENC =         9.72596956
  Ewald energy   TEWEN  =      1916.89714348
  -Hartree energ DENC   =     -3547.42961657
  -exchange      EXHF   =         0.00000000
  -V(xc)+E(xc)   XCENC  =       171.54299614
  PAW double counting   =      1615.14374411    -1626.10587105
  entropy T*S    EENTRO =        -0.00000000
  eigenvalues    EBANDS =      -809.05063469
  atomic energy  EATOM  =      2158.97731088
  Solvation  Ediel_sol  =         0.00000000
  ---------------------------------------------------
  free energy    TOTEN  =      -110.29895814 eV

  energy without entropy =     -110.29895814  energy(sigma->0) =     -110.29895814


--------------------------------------------------------------------------------------------------------




--------------------------------------- Iteration      1(  12)  ---------------------------------------


    EDDIAG:  cpu time      0.0744: real time      0.0765
  RMM-DIIS:  cpu time      0.1679: real time      0.1716
    ORTHCH:  cpu time      0.0058: real time      0.0059
       DOS:  cpu time      0.0003: real time      0.0003
    --------------------------------------------
      LOOP:  cpu time      0.2485: real time      0.2544

 eigenvalue-minimisations  :    36
 total energy-change (2. order) :-0.8169272E-01  (-0.7617985E-01)
 number of electron      48.0000000 magnetization 
 augmentation part       48.0000000 magnetization 

 Free energy of the ion-electron system (eV)
  ---------------------------------------------------
  alpha Z        PSCENC =         9.72596956
  Ewald energy   TEWEN  =      1916.89714348
  -Hartree energ DENC   =     -3547.42961657
  -exchange      EXHF   =         0.00000000
  -V(xc)+E(xc)   XCENC  =       171.54299614
  PAW double counting   =      1615.14374411    -1626.10587105
  entropy T*S    EENTRO =        -0.00000000
  eigenvalues    EBANDS =      -809.13232742
  atomic energy  EATOM  =      2158.97731088
  Solvation  Ediel_sol  =         0.00000000
  ---------------------------------------------------
  free energy    TOTEN  =      -110.38065086 eV

  energy without entropy =     -110.38065086  energy(sigma->0) =     -110.38065086


--------------------------------------------------------------------------------------------------------




--------------------------------------- Iteration      1(  13)  ---------------------------------------


    EDDIAG:  cpu time      0.0758: real time      0.0779
  RMM-DIIS:  cpu time      0.1678: real time      0.1726
    ORTHCH:  cpu time      0.0059: real time      0.0060
       DOS:  cpu time      0.0004: real time      0.0004
    --------------------------------------------
      LOOP:  cpu time      0.2499: real time      0.2568

 eigenvalue-minimisations  :    36
 total energy-change (2. order) :-0.2947687E-01  (-0.2907602E-01)
 number of electron      48.0000000 magnetization 
 augmentation part       48.0000000 magnetization 

 Free energy of the ion-electron system (eV)
  ---------------------------------------------------
  alpha Z        PSCENC =         9.72596956
  Ewald energy   TEWEN  =      1916.89714348
  -Hartree energ DENC   =     -3547.42961657
  -exchange      EXHF   =         0.00000000
  -V(xc)+E(xc)   XCENC  =       171.54299614
  PAW double counting   =      1615.14374411    -1626.10587105
  entropy T*S    EENTRO =        -0.00000000
  eigenvalues    EBANDS =      -809.16180429
  atomic energy  EATOM  =      2158.97731088
  Solvation  Ediel_sol  =         0.00000000
  ---------------------------------------------------
  free energy    TOTEN  =      -110.41012773 eV

  energy without entropy =     -110.41012773  energy(sigma->0) =     -110.41012773


--------------------------------------------------------------------------------------------------------




--------------------------------------- Iteration      1(  14)  ---------------------------------------


    EDDIAG:  cpu time      0.0763: real time      0.0783
  RMM-DIIS:  cpu time      0.1697: real time      0.1735
    ORTHCH:  cpu time      0.0050: real time      0.0051
       DOS:  cpu time      0.0004: real time      0.0004
    --------------------------------------------
      LOOP:  cpu time      0.2514: real time      0.2572

 eigenvalue-minimisations  :    36
 total energy-change (2. order) :-0.1239119E-01  (-0.1140261E-01)
 number of electron      48.0000000 magnetization 
 augmentation part       48.0000000 magnetization 

 Free energy of the ion-electron system (eV)
  ---------------------------------------------------
  alpha Z        PSCENC =         9.72596956
  Ewald energy   TEWEN  =      1916.89714348
  -Hartree energ DENC   =     -3547.42961657
  -exchange      EXHF   =         0.00000000
  -V(xc)+E(xc)   XCENC  =       171.54299614
  PAW double counting   =      1615.14374411    -1626.10587105
  entropy T*S    EENTRO =        -0.00000000
  eigenvalues    EBANDS =      -809.17419547
  atomic energy  EATOM  =      2158.97731088
  Solvation  Ediel_sol  =         0.00000000
  ---------------------------------------------------
  free energy    TOTEN  =      -110.42251892 eV

  energy without entropy =     -110.42251892  energy(sigma->0) =     -110.42251892


--------------------------------------------------------------------------------------------------------




--------------------------------------- Iteration      1(  15)  ---------------------------------------


    EDDIAG:  cpu time      0.0790: real time      0.0815
  RMM-DIIS:  cpu time      0.3130: real time      0.3344
    ORTHCH:  cpu time      0.0049: real time      0.0050
       DOS:  cpu time      0.0002: real time      0.0002
    --------------------------------------------
      LOOP:  cpu time      0.3972: real time      0.4211

 eigenvalue-minimisations  :    79
 total energy-change (2. order) :-0.7228406E-02  (-0.7169510E-02)
 number of electron      48.0000000 magnetization 
 augmentation part       48.0000000 magnetization 

 Free energy of the ion-electron system (eV)
  ---------------------------------------------------
  alpha Z        PSCENC =         9.72596956
  Ewald energy   TEWEN  =      1916.89714348
  -Hartree energ DENC   =     -3547.42961657
  -exchange      EXHF   =         0.00000000
  -V(xc)+E(xc)   XCENC  =       171.54299614
  PAW double counting   =      1615.14374411    -1626.10587105
  entropy T*S    EENTRO =        -0.00000000
  eigenvalues    EBANDS =      -809.18142388
  atomic energy  EATOM  =      2158.97731088
  Solvation  Ediel_sol  =         0.00000000
  ---------------------------------------------------
  free energy    TOTEN  =      -110.42974732 eV

  energy without entropy =     -110.42974732  energy(sigma->0) =     -110.42974732


--------------------------------------------------------------------------------------------------------




--------------------------------------- Iteration      1(  16)  ---------------------------------------


    EDDIAG:  cpu time      0.0721: real time      0.0741
  RMM-DIIS:  cpu time      0.3241: real time      0.3321
    ORTHCH:  cpu time      0.0034: real time      0.0035
       DOS:  cpu time      0.0001: real time      0.0001
    --------------------------------------------
      LOOP:  cpu time      0.3998: real time      0.4098

 eigenvalue-minimisations  :    80
 total energy-change (2. order) :-0.9253644E-03  (-0.9186955E-03)
 number of electron      48.0000000 magnetization 
 augmentation part       48.0000000 magnetization 

 Free energy of the ion-electron system (eV)
  ---------------------------------------------------
  alpha Z        PSCENC =         9.72596956
  Ewald energy   TEWEN  =      1916.89714348
  -Hartree energ DENC   =     -3547.42961657
  -exchange      EXHF   =         0.00000000
  -V(xc)+E(xc)   XCENC  =       171.54299614
  PAW double counting   =      1615.14374411    -1626.10587105
  entropy T*S    EENTRO =        -0.00000000
  eigenvalues    EBANDS =      -809.18234924
  atomic energy  EATOM  =      2158.97731088
  Solvation  Ediel_sol  =         0.00000000
  ---------------------------------------------------
  free energy    TOTEN  =      -110.43067269 eV

  energy without entropy =     -110.43067269  energy(sigma->0) =     -110.43067269


--------------------------------------------------------------------------------------------------------




--------------------------------------- Iteration      1(  17)  ---------------------------------------


    EDDIAG:  cpu time      0.0735: real time      0.0754
  RMM-DIIS:  cpu time      0.3078: real time      0.3140
    ORTHCH:  cpu time      0.0051: real time      0.0051
       DOS:  cpu time      0.0003: real time      0.0003
    --------------------------------------------
      LOOP:  cpu time      0.3867: real time      0.3948

 eigenvalue-minimisations  :    73
 total energy-change (2. order) :-0.1652861E-03  (-0.1523347E-03)
 number of electron      48.0000000 magnetization 
 augmentation part       48.0000000 magnetization 

 Free energy of the ion-electron system (eV)
  ---------------------------------------------------
  alpha Z        PSCENC =         9.72596956
  Ewald energy   TEWEN  =      1916.89714348
  -Hartree energ DENC   =     -3547.42961657
  -exchange      EXHF   =         0.00000000
  -V(xc)+E(xc)   XCENC  =       171.54299614
  PAW double counting   =      1615.14374411    -1626.10587105
  entropy T*S    EENTRO =        -0.00000000
  eigenvalues    EBANDS =      -809.18251453
  atomic energy  EATOM  =      2158.97731088
  Solvation  Ediel_sol  =         0.00000000
  ---------------------------------------------------
  free energy    TOTEN  =      -110.43083797 eV

  energy without entropy =     -110.43083797  energy(sigma->0) =     -110.43083797


--------------------------------------------------------------------------------------------------------




--------------------------------------- Iteration      1(  18)  ---------------------------------------


    EDDIAG:  cpu time      0.0750: real time      0.0766
  RMM-DIIS:  cpu time      0.2595: real time      0.2644
    ORTHCH:  cpu time      0.0051: real time      0.0052
       DOS:  cpu time      0.0003: real time      0.0003
    --------------------------------------------
      LOOP:  cpu time      0.3399: real time      0.3465

 eigenvalue-minimisations  :    60
 total energy-change (2. order) :-0.1056130E-04  (-0.9004363E-05)
 number of electron      48.0000000 magnetization 
 augmentation part       48.0000000 magnetization 

 Free energy of the ion-electron system (eV)
  ---------------------------------------------------
  alpha Z        PSCENC =         9.72596956
  Ewald energy   TEWEN  =      1916.89714348
  -Hartree energ DENC   =     -3547.42961657
  -exchange      EXHF   =         0.00000000
  -V(xc)+E(xc)   XCENC  =       171.54299614
  PAW double counting   =      1615.14374411    -1626.10587105
  entropy T*S    EENTRO =        -0.00000000
  eigenvalues    EBANDS =      -809.18252509
  atomic energy  EATOM  =      2158.97731088
  Solvation  Ediel_sol  =         0.00000000
  ---------------------------------------------------
  free energy    TOTEN  =      -110.43084853 eV

  energy without entropy =     -110.43084853  energy(sigma->0) =     -110.43084853


--------------------------------------------------------------------------------------------------------




--------------------------------------- Iteration      1(  19)  ---------------------------------------


    EDDIAG:  cpu time      0.0765: real time      0.0796
  RMM-DIIS:  cpu time      0.2019: real time      0.2060
    ORTHCH:  cpu time      0.0044: real time      0.0045
       DOS:  cpu time      0.0004: real time      0.0004
    --------------------------------------------
      LOOP:  cpu time      0.2832: real time      0.2905

 eigenvalue-minimisations  :    49
 total energy-change (2. order) :-0.7742874E-06  (-0.7259627E-06)
 number of electron      48.0000000 magnetization 
 augmentation part       48.0000000 magnetization 

 Free energy of the ion-electron system (eV)
  ---------------------------------------------------
  alpha Z        PSCENC =         9.72596956
  Ewald energy   TEWEN  =      1916.89714348
  -Hartree energ DENC   =     -3547.42961657
  -exchange      EXHF   =         0.00000000
  -V(xc)+E(xc)   XCENC  =       171.54299614
  PAW double counting   =      1615.14374411    -1626.10587105
  entropy T*S    EENTRO =        -0.00000000
  eigenvalues    EBANDS =      -809.18252587
  atomic energy  EATOM  =      2158.97731088
  Solvation  Ediel_sol  =         0.00000000
  ---------------------------------------------------
  free energy    TOTEN  =      -110.43084931 eV

  energy without entropy =     -110.43084931  energy(sigma->0) =     -110.43084931


--------------------------------------------------------------------------------------------------------




--------------------------------------- Iteration      1(  20)  ---------------------------------------


    EDDIAG:  cpu time      0.0787: real time      0.0812
  RMM-DIIS:  cpu time      0.2060: real time      0.2093
    ORTHCH:  cpu time      0.0035: real time      0.0036
       DOS:  cpu time      0.0002: real time      0.0002
    CHARGE:  cpu time      0.0338: real time      0.0343
    MIXING:  cpu time      0.0092: real time      0.0210
    --------------------------------------------
      LOOP:  cpu time      0.3315: real time      0.3496

 eigenvalue-minimisations  :    47
 total energy-change (2. order) :-0.2106262E-06  (-0.2088315E-06)
 number of electron      47.9999975 magnetization 
 augmentation part        2.7022239 magnetization 

 Broyden mixing:
  rms(total) = 0.17180E+01    rms(broyden)= 0.17171E+01
  rms(prec ) = 0.21244E+01
  weight for this iteration     100.00

 Free energy of the ion-electron system (eV)
  ---------------------------------------------------
  alpha Z        PSCENC =         9.72596956
  Ewald energy   TEWEN  =      1916.89714348
  -Hartree energ DENC   =     -3547.42961657
  -exchange      EXHF   =         0.00000000
  -V(xc)+E(xc)   XCENC  =       171.54299614
  PAW double counting   =      1615.14374411    -1626.10587105
  entropy T*S    EENTRO =        -0.00000000
  eigenvalues    EBANDS =      -809.18252608
  atomic energy  EATOM  =      2158.97731088
  Solvation  Ediel_sol  =         0.00000000
  ---------------------------------------------------
  free energy    TOTEN  =      -110.43084952 eV

  energy without entropy =     -110.43084952  energy(sigma->0) =     -110.43084952


--------------------------------------------------------------------------------------------------------




--------------------------------------- Iteration      1(  21)  ---------------------------------------


    POTLOK:  cpu time      0.2159: real time      0.2197
    SETDIJ:  cpu time      0.0056: real time      0.0057
    EDDIAG:  cpu time      0.0767: real time      0.0779
  RMM-DIIS:  cpu time      0.4321: real time      0.4384
    ORTHCH:  cpu time      0.0055: real time      0.0056
       DOS:  cpu time      0.0003: real time      0.0003
    CHARGE:  cpu time      0.0352: real time      0.0357
    MIXING:  cpu time      0.0098: real time      0.0123
    --------------------------------------------
      LOOP:  cpu time      0.7811: real time      0.7955

 eigenvalue-minimisations  :   120
 total energy-change (2. order) : 0.7859956E+01  (-0.1483953E+01)
 number of electron      47.9999975 magnetization 
 augmentation part        2.5390261 magnetization 

 Broyden mixing:
  rms(total) = 0.92496E+00    rms(broyden)= 0.92488E+00
  rms(prec ) = 0.10770E+01
  weight for this iteration     100.00

 eigenvalues of (default mixing * dielectric matrix)
  average eigenvalue GAMMA=   1.3949
  1.3949

 Free energy of the ion-electron system (eV)
  ---------------------------------------------------
  alpha Z        PSCENC =         9.72596956
  Ewald energy   TEWEN  =      1916.89714348
  -Hartree energ DENC   =     -3632.81715712
  -exchange      EXHF   =         0.00000000
  -V(xc)+E(xc)   XCENC  =       175.81687855
  PAW double counting   =      2487.61383124    -2499.64859600
  entropy T*S    EENTRO =        -0.00000000
  eigenvalues    EBANDS =      -719.13627414
  atomic energy  EATOM  =      2158.97731088
  Solvation  Ediel_sol  =         0.00000000
  ---------------------------------------------------
  free energy    TOTEN  =      -102.57089355 eV

  energy without entropy =     -102.57089355  energy(sigma->0) =     -102.57089355


--------------------------------------------------------------------------------------------------------




--------------------------------------- Iteration      1(  22)  ---------------------------------------


    POTLOK:  cpu time      0.2067: real time      0.2096
    SETDIJ:  cpu time      0.0036: real time      0.0037
    EDDIAG:  cpu time      0.0838: real time      0.0850
  RMM-DIIS:  cpu time      0.4659: real time      0.4732
    ORTHCH:  cpu time      0.0035: real time      0.0035
       DOS:  cpu time      0.0002: real time      0.0002
    CHARGE:  cpu time      0.0289: real time      0.0292
    MIXING:  cpu time      0.0078: real time      0.0079
    --------------------------------------------
      LOOP:  cpu time      0.8004: real time      0.8124

 eigenvalue-minimisations  :   120
 total energy-change (2. order) : 0.1704868E+01  (-0.2548064E+00)
 number of electron      47.9999976 magnetization 
 augmentation part        2.4940241 magnetization 

 Broyden mixing:
  rms(total) = 0.42123E+00    rms(broyden)= 0.42119E+00
  rms(prec ) = 0.47726E+00
  weight for this iteration     100.00

 eigenvalues of (default mixing * dielectric matrix)
  average eigenvalue GAMMA=   1.6782
  1.1521  2.2043

 Free energy of the ion-electron system (eV)
  ---------------------------------------------------
  alpha Z        PSCENC =         9.72596956
  Ewald energy   TEWEN  =      1916.89714348
  -Hartree energ DENC   =     -3688.50800872
  -exchange      EXHF   =         0.00000000
  -V(xc)+E(xc)   XCENC  =       178.59370963
  PAW double counting   =      3482.29012587    -3494.77200320
  entropy T*S    EENTRO =        -0.00000000
  eigenvalues    EBANDS =      -664.07027290
  atomic energy  EATOM  =      2158.97731088
  Solvation  Ediel_sol  =         0.00000000
  ---------------------------------------------------
  free energy    TOTEN  =      -100.86602540 eV

  energy without entropy =     -100.86602540  energy(sigma->0) =     -100.86602540


--------------------------------------------------------------------------------------------------------




--------------------------------------- Iteration      1(  23)  ---------------------------------------


    POTLOK:  cpu time      0.1824: real time      0.1847
    SETDIJ:  cpu time      0.0028: real time      0.0028
    EDDIAG:  cpu time      0.0691: real time      0.0708
  RMM-DIIS:  cpu time      0.5047: real time      0.5122
    ORTHCH:  cpu time      0.0060: real time      0.0060
       DOS:  cpu time      0.0003: real time      0.0003
    CHARGE:  cpu time      0.0295: real time      0.0299
    MIXING:  cpu time      0.0074: real time      0.0075
    --------------------------------------------
      LOOP:  cpu time      0.8022: real time      0.8143

 eigenvalue-minimisations  :   120
 total energy-change (2. order) : 0.3084013E+00  (-0.4759148E-01)
 number of electron      47.9999977 magnetization 
 augmentation part        2.4701215 magnetization 

 Broyden mixing:
  rms(total) = 0.10661E+00    rms(broyden)= 0.10657E+00
  rms(prec ) = 0.14192E+00
  weight for this iteration     100.00

 eigenvalues of (default mixing * dielectric matrix)
  average eigenvalue GAMMA=   1.6145
  1.0021  2.1901  1.6513

 Free energy of the ion-electron system (eV)
  ---------------------------------------------------
  alpha Z        PSCENC =         9.72596956
  Ewald energy   TEWEN  =      1916.89714348
  -Hartree energ DENC   =     -3720.13961883
  -exchange      EXHF   =         0.00000000
  -V(xc)+E(xc)   XCENC  =       180.23574757
  PAW double counting   =      4254.03987997    -4266.61991361
  entropy T*S    EENTRO =        -0.00000000
  eigenvalues    EBANDS =      -633.67414309
  atomic energy  EATOM  =      2158.97731088
  Solvation  Ediel_sol  =         0.00000000
  ---------------------------------------------------
  free energy    TOTEN  =      -100.55762407 eV

  energy without entropy =     -100.55762407  energy(sigma->0) =     -100.55762407


--------------------------------------------------------------------------------------------------------




--------------------------------------- Iteration      1(  24)  ---------------------------------------


    POTLOK:  cpu time      0.1837: real time      0.1863
    SETDIJ:  cpu time      0.0030: real time      0.0031
    EDDIAG:  cpu time      0.0708: real time      0.0718
  RMM-DIIS:  cpu time      0.4824: real time      0.4893
    ORTHCH:  cpu time      0.0054: real time      0.0055
       DOS:  cpu time      0.0003: real time      0.0003
    CHARGE:  cpu time      0.0400: real time      0.0405
    MIXING:  cpu time      0.0105: real time      0.0106
    --------------------------------------------
      LOOP:  cpu time      0.7961: real time      0.8074

 eigenvalue-minimisations  :   117
 total energy-change (2. order) : 0.3115275E-01  (-0.2650112E-02)
 number of electron      47.9999977 magnetization 
 augmentation part        2.4736189 magnetization 

 Broyden mixing:
  rms(total) = 0.31351E-01    rms(broyden)= 0.31348E-01
  rms(prec ) = 0.70198E-01
  weight for this iteration     100.00

 eigenvalues of (default mixing * dielectric matrix)
  average eigenvalue GAMMA=   1.5442
  2.1409  1.9681  0.9719  1.0958

 Free energy of the ion-electron system (eV)
  ---------------------------------------------------
  alpha Z        PSCENC =         9.72596956
  Ewald energy   TEWEN  =      1916.89714348
  -Hartree energ DENC   =     -3725.36945765
  -exchange      EXHF   =         0.00000000
  -V(xc)+E(xc)   XCENC  =       180.38764484
  PAW double counting   =      4368.51411249    -4380.99056361
  entropy T*S    EENTRO =        -0.00000000
  eigenvalues    EBANDS =      -628.66863130
  atomic energy  EATOM  =      2158.97731088
  Solvation  Ediel_sol  =         0.00000000
  ---------------------------------------------------
  free energy    TOTEN  =      -100.52647132 eV

  energy without entropy =     -100.52647132  energy(sigma->0) =     -100.52647132


--------------------------------------------------------------------------------------------------------




--------------------------------------- Iteration      1(  25)  ---------------------------------------


    POTLOK:  cpu time      0.1797: real time      0.1821
    SETDIJ:  cpu time      0.0025: real time      0.0025
    EDDIAG:  cpu time      0.0661: real time      0.0671
  RMM-DIIS:  cpu time      0.3822: real time      0.3878
    ORTHCH:  cpu time      0.0049: real time      0.0049
       DOS:  cpu time      0.0002: real time      0.0002
    CHARGE:  cpu time      0.0378: real time      0.0385
    MIXING:  cpu time      0.0113: real time      0.0115
    --------------------------------------------
      LOOP:  cpu time      0.6847: real time      0.6946

 eigenvalue-minimisations  :    95
 total energy-change (2. order) : 0.6428168E-02  (-0.3603307E-03)
 number of electron      47.9999977 magnetization 
 augmentation part        2.4722832 magnetization 

 Broyden mixing:
  rms(total) = 0.18985E-01    rms(broyden)= 0.18985E-01
  rms(prec ) = 0.50202E-01
  weight for this iteration     100.00

 eigenvalues of (default mixing * dielectric matrix)
  average eigenvalue GAMMA=   1.6658
  2.4525  2.4525  1.4624  0.8986  1.0632

 Free energy of the ion-electron system (eV)
  ---------------------------------------------------
  alpha Z        PSCENC =         9.72596956
  Ewald energy   TEWEN  =      1916.89714348
  -Hartree energ DENC   =     -3730.27236333
  -exchange      EXHF   =         0.00000000
  -V(xc)+E(xc)   XCENC  =       180.49804510
  PAW double counting   =      4382.73333244    -4395.18796424
  entropy T*S    EENTRO =        -0.00000000
  eigenvalues    EBANDS =      -623.89151703
  atomic energy  EATOM  =      2158.97731088
  Solvation  Ediel_sol  =         0.00000000
  ---------------------------------------------------
  free energy    TOTEN  =      -100.52004315 eV

  energy without entropy =     -100.52004315  energy(sigma->0) =     -100.52004315


--------------------------------------------------------------------------------------------------------




--------------------------------------- Iteration      1(  26)  ---------------------------------------


    POTLOK:  cpu time      0.2065: real time      0.2088
    SETDIJ:  cpu time      0.0026: real time      0.0026
    EDDIAG:  cpu time      0.0691: real time      0.0701
[...]
    SETDIJ:  cpu time      0.0024: real time      0.0024
    EDDIAG:  cpu time      0.0611: real time      0.0621
  RMM-DIIS:  cpu time      0.2185: real time      0.2219
    ORTHCH:  cpu time      0.0059: real time      0.0060
       DOS:  cpu time      0.0003: real time      0.0003
    CHARGE:  cpu time      0.0264: real time      0.0267
    MIXING:  cpu time      0.0047: real time      0.0048
    --------------------------------------------
      LOOP:  cpu time      0.4942: real time      0.5024

 eigenvalue-minimisations  :    67
 total energy-change (2. order) :-0.5958282E-06  (-0.7139331E-05)
 number of electron      48.0000002 magnetization 
 augmentation part        2.4557379 magnetization 

 Broyden mixing:
  rms(total) = 0.18771E-02    rms(broyden)= 0.18768E-02
  rms(prec ) = 0.20281E-02
  weight for this iteration     100.00

 eigenvalues of (default mixing * dielectric matrix)
  average eigenvalue GAMMA=   1.4815
  1.8534  1.8534  0.7378

 Free energy of the ion-electron system (eV)
  ---------------------------------------------------
  alpha Z        PSCENC =         9.72596956
  Ewald energy   TEWEN  =      1889.08501437
  -Hartree energ DENC   =     -3717.16865289
  -exchange      EXHF   =         0.00000000
  -V(xc)+E(xc)   XCENC  =       180.28693654
  PAW double counting   =      4287.60281656    -4299.99538353
  entropy T*S    EENTRO =        -0.00000000
  eigenvalues    EBANDS =      -609.07704059
  atomic energy  EATOM  =      2158.97731088
  Solvation  Ediel_sol  =         0.00000000
  ---------------------------------------------------
  free energy    TOTEN  =      -100.56302910 eV

  energy without entropy =     -100.56302910  energy(sigma->0) =     -100.56302910


--------------------------------------------------------------------------------------------------------




--------------------------------------- Iteration     10(   5)  ---------------------------------------


    POTLOK:  cpu time      0.1575: real time      0.1593
    SETDIJ:  cpu time      0.0030: real time      0.0031
    EDDIAG:  cpu time      0.0732: real time      0.0744
  RMM-DIIS:  cpu time      0.2254: real time      0.2287
    ORTHCH:  cpu time      0.0056: real time      0.0056
       DOS:  cpu time      0.0004: real time      0.0004
    CHARGE:  cpu time      0.0393: real time      0.0398
    MIXING:  cpu time      0.0088: real time      0.0089
    --------------------------------------------
      LOOP:  cpu time      0.5133: real time      0.5202

 eigenvalue-minimisations  :    50
 total energy-change (2. order) : 0.5416355E-06  (-0.1800099E-05)
 number of electron      48.0000002 magnetization 
 augmentation part        2.4557779 magnetization 

 Broyden mixing:
  rms(total) = 0.60001E-03    rms(broyden)= 0.59979E-03
  rms(prec ) = 0.70675E-03
  weight for this iteration     100.00

 eigenvalues of (default mixing * dielectric matrix)
  average eigenvalue GAMMA=   1.4663
  2.3769  0.9485  1.2700  1.2700

 Free energy of the ion-electron system (eV)
  ---------------------------------------------------
  alpha Z        PSCENC =         9.72596956
  Ewald energy   TEWEN  =      1889.08501437
  -Hartree energ DENC   =     -3717.15992459
  -exchange      EXHF   =         0.00000000
  -V(xc)+E(xc)   XCENC  =       180.28677382
  PAW double counting   =      4288.09136103    -4300.48401765
  entropy T*S    EENTRO =        -0.00000000
  eigenvalues    EBANDS =      -609.08551597
  atomic energy  EATOM  =      2158.97731088
  Solvation  Ediel_sol  =         0.00000000
  ---------------------------------------------------
  free energy    TOTEN  =      -100.56302856 eV

  energy without entropy =     -100.56302856  energy(sigma->0) =     -100.56302856


--------------------------------------------------------------------------------------------------------




--------------------------------------- Iteration     10(   6)  ---------------------------------------


    POTLOK:  cpu time      0.2000: real time      0.2029
    SETDIJ:  cpu time      0.0056: real time      0.0057
    EDDIAG:  cpu time      0.0417: real time      0.0424
  RMM-DIIS:  cpu time      0.1937: real time      0.1971
    ORTHCH:  cpu time      0.0049: real time      0.0050
       DOS:  cpu time      0.0001: real time      0.0001
    --------------------------------------------
      LOOP:  cpu time      0.4460: real time      0.4531

 eigenvalue-minimisations  :    47
 total energy-change (2. order) :-0.1973240E-07  (-0.4203511E-06)
 number of electron      48.0000002 magnetization 
 augmentation part        2.4557779 magnetization 

 Free energy of the ion-electron system (eV)
  ---------------------------------------------------
  alpha Z        PSCENC =         9.72596956
  Ewald energy   TEWEN  =      1889.08501437
  -Hartree energ DENC   =     -3717.16414163
  -exchange      EXHF   =         0.00000000
  -V(xc)+E(xc)   XCENC  =       180.28701366
  PAW double counting   =      4288.22042532    -4300.61317657
  entropy T*S    EENTRO =        -0.00000000
  eigenvalues    EBANDS =      -609.08144416
  atomic energy  EATOM  =      2158.97731088
  Solvation  Ediel_sol  =         0.00000000
  ---------------------------------------------------
  free energy    TOTEN  =      -100.56302858 eV

  energy without entropy =     -100.56302858  energy(sigma->0) =     -100.56302858


--------------------------------------------------------------------------------------------------------




 average (electrostatic) potential at core
  the test charge radii are     0.6991  0.7167  0.5201  0.7089
  (the norm of the test charge is              1.0000)
       1 -58.0732       2 -58.7212       3 -59.9564       4 -59.8585       5 -58.6889
       6 -58.0461       7 -85.2661       8 -41.3989       9 -41.3965      10 -41.3936
      11 -43.5027      12 -43.4019      13 -41.3433      14 -41.5208      15 -73.2447
      16 -72.4289
 
 
 
 E-fermi :  -4.1221     XC(G=0):  -1.9696     alpha+bet : -1.0040

 Fermi energy:        -4.1221363170

 k-point     1 :       0.0000    0.0000    0.0000
  band No.  band energies     occupation 
      1     -29.9270      2.00000
      2     -23.4124      2.00000
      3     -21.5954      2.00000
      4     -19.6800      2.00000
      5     -17.6551      2.00000
      6     -17.0184      2.00000
      7     -14.8917      2.00000
      8     -14.5231      2.00000
      9     -12.9382      2.00000
     10     -12.1615      2.00000
     11     -11.9323      2.00000
     12     -11.0017      2.00000
     13     -10.7382      2.00000
     14     -10.3482      2.00000
     15      -9.4838      2.00000
     16      -9.3915      2.00000
     17      -9.0875      2.00000
     18      -9.0182      2.00000
     19      -8.6615      2.00000
     20      -8.1007      2.00000
     21      -7.1019      2.00000
     22      -5.8962      2.00000
     23      -5.3790      2.00000
     24      -4.5973      2.00000
     25      -0.8001      0.00000
     26      -0.3114      0.00000
     27      -0.1909      0.00000
     28       0.5286      0.00000
     29       0.6329      0.00000
     30       0.8279      0.00000
     31       1.1307      0.00000
     32       1.6311      0.00000
     33       1.8013      0.00000
     34       1.9502      0.00000
     35       2.0107      0.00000
     36       2.2930      0.00000


--------------------------------------------------------------------------------------------------------


 soft charge-density along one line, spin component           1
         0         1         2         3         4         5         6         7         8         9
 total charge-density along one line
 
 pseudopotential strength for first ion, spin component:           1
 10.211  13.579  -0.002  -0.000   0.000   0.005   0.001  -0.000
 13.579  18.056  -0.002  -0.000   0.000   0.006   0.001  -0.000
 -0.002  -0.002  -4.340  -0.000  -0.000   8.492   0.001   0.000
 -0.000  -0.000  -0.000  -4.338   0.000   0.001   8.488  -0.000
  0.000   0.000  -0.000   0.000  -4.338   0.000  -0.000   8.487
  0.005   0.006   8.492   0.001   0.000 -18.753  -0.001  -0.000
  0.001   0.001   0.001   8.488  -0.000  -0.001 -18.743   0.000
 -0.000  -0.000   0.000  -0.000   8.487  -0.000   0.000 -18.743
 total augmentation occupancy for first ion, spin component:           1
  7.722  -3.343  -0.005  -0.006  -0.000  -0.012  -0.001  -0.000
 -3.343   1.462   0.029   0.006   0.000   0.010   0.000   0.000
 -0.005   0.029   1.579  -0.007  -0.000   0.138  -0.001   0.000
 -0.006   0.006  -0.007   1.648   0.000  -0.001   0.133   0.000
 -0.000   0.000  -0.000   0.000   1.626   0.000   0.000   0.131
 -0.012   0.010   0.138  -0.001   0.000   0.013  -0.000   0.000
 -0.001   0.000  -0.001   0.133   0.000  -0.000   0.011   0.000
 -0.000   0.000   0.000   0.000   0.131   0.000   0.000   0.011


------------------------ aborting loop because EDIFF is reached ----------------------------------------





 total charge

# of ion       s       p       d       tot
------------------------------------------
    1        0.838   1.801   0.000   2.639
    2        0.865   1.766   0.000   2.631
    3        0.855   1.718   0.000   2.573
    4        0.858   1.768   0.000   2.626
    5        0.866   1.754   0.000   2.620
    6        0.866   1.783   0.000   2.650
    7        1.747   4.360   0.000   6.107
    8        0.637   0.043   0.000   0.680
    9        0.637   0.043   0.000   0.680
   10        0.643   0.043   0.000   0.687
   11        0.639   0.085   0.000   0.725
   12        0.637   0.084   0.000   0.721
   13        0.649   0.044   0.000   0.694
   14        0.642   0.045   0.000   0.687
   15        1.216   2.784   0.000   4.000
   16        1.258   2.642   0.000   3.900
--------------------------------------------------
tot         13.853  20.766   0.000  34.620
 
    CHARGE:  cpu time      0.0328: real time      0.0333
    FORLOC:  cpu time      0.0230: real time      0.0233
    FORNL :  cpu time      0.1170: real time      0.1190
    STRESS:  cpu time      0.3025: real time      0.3072
    FORCOR:  cpu time      0.2037: real time      0.2062
    FORHAR:  cpu time      0.0750: real time      0.0759
    MIXING:  cpu time      0.0116: real time      0.0117
    OFIELD:  cpu time      0.0002: real time      0.0002

  FORCE on cell =-STRESS in cart. coord.  units (eV):
  Direction    XX          YY          ZZ          XY          YZ          ZX
  --------------------------------------------------------------------------------------
  Alpha Z     9.72597     9.72597     9.72597
  Ewald    -502.39870  1157.07004  1234.41198   -10.42726    59.99565   -14.41849
  Hartree   696.35790  1527.20682  1493.62069    -1.76786    65.24134    -0.67956
  E(xc)    -197.31544  -193.47306  -192.87542    -0.03727    -0.12804    -0.05978
  Local    -784.43857 -3199.96017 -3207.50070    10.28252  -136.45992    10.76403
  n-local  -107.77792  -109.44275  -106.57090    -0.07363    -0.00240    -0.30726
  augment    19.99759    18.97987    16.49301     0.04547     1.42040     0.14712
  Kinetic   865.66309   789.78406   752.61412     1.95739    10.08126     4.53072
  Fock        0.00000     0.00000     0.00000     0.00000     0.00000     0.00000
  -------------------------------------------------------------------------------------
  Total      -0.18608    -0.10922    -0.08125    -0.02063     0.14829    -0.02322
  in kB      -0.28979    -0.17008    -0.12653    -0.03212     0.23093    -0.03616
  external pressure =       -0.20 kB  Pullay stress =        0.00 kB


 VOLUME and BASIS-vectors are now :
 -----------------------------------------------------------------------------
  energy-cutoff  :      500.00
  volume of cell :     1028.81
      direct lattice vectors                 reciprocal lattice vectors
     7.757600000  0.000000000  0.000000000     0.128905847  0.000000000  0.000000000
     0.000000000 11.706200000  0.000000000     0.000000000  0.085424818  0.000000000
     0.000000000  0.000000000 11.329000000     0.000000000  0.000000000  0.088269044

  length of vectors
     7.757600000 11.706200000 11.329000000     0.128905847  0.085424818  0.088269044


 FORCES acting on ions
    electron-ion (+dipol)            ewald-force                    non-local-force                 convergence-correction
 -----------------------------------------------------------------------------------------------
   -.173E+00 -.191E+03 -.395E+02   0.170E+00 0.193E+03 0.397E+02   0.406E-02 -.147E+01 -.214E+00   -.240E-03 0.131E-02 -.337E-03
   0.451E+00 -.119E+03 -.759E+02   -.450E+00 0.120E+03 0.774E+02   -.221E-02 -.126E+01 -.147E+01   -.188E-03 -.207E-02 -.437E-03
   0.210E+01 -.209E+02 0.991E+01   -.227E+01 0.174E+02 -.199E+01   0.165E+00 0.349E+01 -.790E+01   -.131E-03 -.207E-02 -.954E-03
   -.569E-01 0.760E+02 0.527E+02   0.626E+00 -.733E+02 -.513E+02   -.555E+00 -.265E+01 -.142E+01   0.573E-03 0.725E-03 0.145E-03
   -.581E+00 0.979E+02 -.216E+03   0.557E+00 -.965E+02 0.220E+03   0.167E-01 -.134E+01 -.378E+01   -.441E-03 0.858E-03 -.466E-04
   0.740E+00 -.611E+02 -.208E+03   -.761E+00 0.611E+02 0.210E+03   0.213E-01 -.753E-02 -.163E+01   -.222E-03 -.188E-02 0.123E-02
   -.960E+00 -.218E+03 0.373E+03   0.951E+00 0.242E+03 -.417E+03   0.178E-01 -.244E+02 0.436E+02   -.997E-04 0.857E-03 -.141E-02
   -.522E+02 -.535E+02 0.214E+02   0.566E+02 0.555E+02 -.240E+02   -.442E+01 -.195E+01 0.268E+01   0.294E-03 0.374E-03 -.316E-03
   0.521E+02 -.537E+02 0.213E+02   -.566E+02 0.557E+02 -.240E+02   0.442E+01 -.197E+01 0.268E+01   -.336E-03 0.361E-03 -.309E-03
   -.117E+00 -.513E+02 -.616E+02   0.126E+00 0.535E+02 0.667E+02   -.879E-02 -.214E+01 -.516E+01   -.322E-04 0.397E-03 0.387E-03
   -.251E+02 -.746E+01 0.935E+02   0.273E+02 0.111E+02 -.997E+02   -.226E+01 -.363E+01 0.618E+01   0.222E-03 -.423E-03 -.243E-03
   -.203E+02 0.973E+02 0.203E+02   0.222E+02 -.105E+03 -.197E+02   -.192E+01 0.722E+01 -.613E+00   0.109E-03 0.256E-04 -.323E-03
   -.619E+00 0.469E+02 -.738E+02   0.669E+00 -.501E+02 0.786E+02   -.504E-01 0.321E+01 -.483E+01   -.526E-04 -.655E-04 0.283E-03
   -.143E-01 -.321E+02 -.795E+02   0.208E-01 0.347E+02 0.845E+02   -.608E-02 -.262E+01 -.507E+01   -.265E-04 -.310E-03 0.132E-03
   0.358E+02 0.187E+03 0.217E+03   -.518E+02 -.189E+03 -.222E+03   0.161E+02 0.271E+01 0.444E+01   0.429E-02 -.430E-02 -.840E-03
   -.219E+01 0.297E+03 -.813E+02   0.258E+01 -.330E+03 0.827E+02   -.390E+00 0.330E+02 -.137E+01   -.919E-03 0.559E-02 -.584E-03
 -----------------------------------------------------------------------------------------------
   -.111E+02 -.611E+01 -.261E+02   0.124E-13 0.000E+00 -.568E-13   0.111E+02 0.616E+01 0.261E+02   0.280E-02 -.616E-03 -.362E-02
 
 
 POSITION                                       TOTAL-FORCE (eV/Angst)
 -----------------------------------------------------------------------------------
      3.87829      8.30064      6.15220        -0.000161     -0.019347      0.014435
      3.87503      6.79937      6.18217        -0.002782      0.009761      0.045691
      3.87157      6.06347      5.01081        -0.004470      0.010477      0.014097
      3.87190      4.65724      5.00195         0.013896     -0.007243     -0.025202
      3.88351      4.65787      7.29965        -0.008840      0.040541      0.003213
      3.87627      6.04829      7.37299        -0.000599      0.006733      0.012219
      3.88010      6.71331      3.79581         0.008305      0.007148     -0.003152
      4.76151      8.68161      5.61868        -0.014307      0.011059      0.011377
      2.99586      8.68503      5.62011         0.009957      0.013672      0.009739
      3.88006      8.70937      7.17017        -0.000993      0.004619     -0.022391
      4.14180      4.44907      2.98797        -0.027993     -0.039022     -0.022333
      4.09579      2.98737      3.89241        -0.013953     -0.013387     -0.024966
      3.89328      4.05886      8.21451        -0.001388     -0.005652     -0.010751
      3.87762      6.55447      8.34021        -0.000709     -0.012523     -0.026907
      3.81759      3.95992      3.81449         0.047996     -0.005592      0.003835
      3.88493      3.96490      6.15028        -0.003961     -0.001244      0.021098
 -----------------------------------------------------------------------------------
    total drift:                                0.017770      0.041780      0.015499


--------------------------------------------------------------------------------------------------------



  FREE ENERGIE OF THE ION-ELECTRON SYSTEM (eV)
  ---------------------------------------------------
  free  energy   TOTEN  =      -100.56302858 eV

  energy  without entropy=     -100.56302858  energy(sigma->0) =     -100.56302858
 
 d Force = 0.4857483E-03[ 0.261E-03, 0.710E-03]  d Energy = 0.4853409E-03 0.407E-06
 d Force = 0.2738331E+00[ 0.275E+00, 0.273E+00]  d Ewald  = 0.2738325E+00 0.602E-06


--------------------------------------------------------------------------------------------------------


    POTLOK:  cpu time      0.1826: real time      0.1846


--------------------------------------------------------------------------------------------------------


 stress matrix after NEB project (eV)
     -0.18608     -0.02063     -0.02322
     -0.02063     -0.10922      0.14829
     -0.02322      0.14829     -0.08125
  FORCES: max atom, RMS     0.052963    0.030665
  FORCE total and by dimension    0.122661    0.047996
  Stress total and by dimension    0.314742    0.186081
 Conjugate gradient step on ions:
 trial-energy change:   -0.000485  1 .order   -0.000486   -0.000710   -0.000261
  (g-gl).g = 0.675E-03      g.g   = 0.668E-03  gl.gl    = 0.955E-03
 g(Force)  = 0.668E-03   g(Stress)= 0.000E+00 ortho     = 0.724E-05
 gamma     =   0.70705
 trial     =   1.05507
 opt step  =   1.67015  (harmonic =   1.67015) maximal distance =0.00370174
 next E    =  -100.563105   (d E  =  -0.00056)


--------------------------------------------------------------------------------------------------------


     LOOP+:  cpu time      4.1110: real time      4.3037
    4ORBIT:  cpu time      0.0000: real time      0.0000



 total charge

# of ion       s       p       d       tot
------------------------------------------
    1        0.838   1.801   0.000   2.639
    2        0.865   1.766   0.000   2.631
    3        0.855   1.718   0.000   2.573
    4        0.858   1.768   0.000   2.626
    5        0.866   1.754   0.000   2.620
    6        0.866   1.783   0.000   2.650
    7        1.747   4.360   0.000   6.107
    8        0.637   0.043   0.000   0.680
    9        0.637   0.043   0.000   0.680
   10        0.643   0.043   0.000   0.687
   11        0.639   0.085   0.000   0.725
   12        0.637   0.084   0.000   0.721
   13        0.649   0.044   0.000   0.694
   14        0.642   0.045   0.000   0.687
   15        1.216   2.784   0.000   4.000
   16        1.258   2.642   0.000   3.900
--------------------------------------------------
tot         13.853  20.766   0.000  34.620
 

 total amount of memory used by VASP MPI-rank0    55970. kBytes
=======================================================================

   base      :      30000. kBytes
   nonlr-proj:        470. kBytes
   fftplans  :       7948. kBytes
   grid      :      16595. kBytes
   one-center:         12. kBytes
   wavefun   :        945. kBytes
 
  
  
 General timing and accounting informations for this job:
 ========================================================
  
                  Total CPU time used (sec):       62.988
                            User time (sec):       55.399
                          System time (sec):        7.589
                         Elapsed time (sec):       69.002
  
                   Maximum memory used (kb):      234760.
                   Average memory used (kb):          N/A
  
                          Minor page faults:        29454
                          Major page faults:         5641
                 Voluntary context switches:         2535
