PROCAR lm decomposed
# of k-points:    1         # of bands:   36         # of ions:   16

 k-point     1 :    0.00000000 0.00000000 0.00000000     weight = 1.00000000

band     1 # energy  -29.92703759 # occ.  2.00000000
 
ion      s     py     pz     px    dxy    dyz    dz2    dxz  x2-y2    tot
    1  0.000  0.000  0.000  0.000  0.000  0.000  0.000  0.000  0.000  0.000
    2  0.001  0.000  0.001  0.000  0.000  0.000  0.000  0.000  0.000  0.001
    3  0.047  0.006  0.023  0.000  0.000  0.000  0.000  0.000  0.000  0.076
    4  0.001  0.000  0.000  0.000  0.000  0.000  0.000  0.000  0.000  0.002
    5  0.000  0.000  0.000  0.000  0.000  0.000  0.000  0.000  0.000  0.000
    6  0.000  0.000  0.000  0.000  0.000  0.000  0.000  0.000  0.000  0.000
    7  0.787  0.006  0.020  0.000  0.000  0.000  0.000  0.000  0.000  0.812
    8  0.000  0.000  0.000  0.000  0.000  0.000  0.000  0.000  0.000  0.000
    9  0.000  0.000  0.000  0.000  0.000  0.000  0.000  0.000  0.000  0.000
   10  0.000  0.000  0.000  0.000  0.000  0.000  0.000  0.000  0.000  0.000
   11  0.000  0.000  0.000  0.000  0.000  0.000  0.000  0.000  0.000  0.000
   12  0.000  0.000  0.000  0.000  0.000  0.000  0.000  0.000  0.000  0.000
   13  0.000  0.000  0.000  0.000  0.000  0.000  0.000  0.000  0.000  0.000
   14  0.000  0.000  0.000  0.000  0.000  0.000  0.000  0.000  0.000  0.000
   15  0.000  0.000  0.000  0.000  0.000  0.000  0.000  0.000  0.000  0.000
   16  0.000  0.000  0.000  0.000  0.000  0.000  0.000  0.000  0.000  0.000
tot    0.836  0.013  0.043  0.000  0.000  0.000  0.000  0.000  0.000  0.892
 
band     2 # energy  -23.41235950 # occ.  2.00000000
 
ion      s     py     pz     px    dxy    dyz    dz2    dxz  x2-y2    tot
    1  0.000  0.000  0.000  0.000  0.000  0.000  0.000  0.000  0.000  0.000
    2  0.008  0.002  0.000  0.000  0.000  0.000  0.000  0.000  0.000  0.009
    3  0.020  0.007  0.002  0.000  0.000  0.000  0.000  0.000  0.000  0.028
    4  0.190  0.006  0.001  0.000  0.000  0.000  0.000  0.000  0.000  0.197
    5  0.047  0.001  0.012  0.000  0.000  0.000  0.000  0.000  0.000  0.060
    6  0.009  0.001  0.001  0.000  0.000  0.000  0.000  0.000  0.000  0.011
    7  0.006  0.000  0.000  0.000  0.000  0.000  0.000  0.000  0.000  0.007
    8  0.000  0.000  0.000  0.000  0.000  0.000  0.000  0.000  0.000  0.000
    9  0.000  0.000  0.000  0.000  0.000  0.000  0.000  0.000  0.000  0.000
   10  0.000  0.000  0.000  0.000  0.000  0.000  0.000  0.000  0.000  0.000
   11  0.015  0.000  0.002  0.000  0.000  0.000  0.000  0.000  0.000  0.018
   12  0.017  0.003  0.000  0.000  0.000  0.000  0.000  0.000  0.000  0.020
   13  0.001  0.000  0.000  0.000  0.000  0.000  0.000  0.000  0.000  0.001
   14  0.000  0.000  0.000  0.000  0.000  0.000  0.000  0.000  0.000  0.000
   15  0.176  0.001  0.007  0.002  0.000  0.000  0.000  0.000  0.000  0.186
   16  0.222  0.022  0.003  0.000  0.000  0.000  0.000  0.000  0.000  0.247
tot    0.712  0.042  0.029  0.002  0.000  0.000  0.000  0.000  0.000  0.785
 
band     3 # energy  -21.59535539 # occ.  2.00000000
 
ion      s     py     pz     px    dxy    dyz    dz2    dxz  x2-y2    tot
    1  0.002  0.000  0.000  0.000  0.000  0.000  0.000  0.000  0.000  0.002
    2  0.019  0.002  0.000  0.000  0.000  0.000  0.000  0.000  0.000  0.020
    3  0.004  0.000  0.004  0.000  0.000  0.000  0.000  0.000  0.000  0.009
    4  0.004  0.003  0.062  0.000  0.000  0.000  0.000  0.000  0.000  0.070
    5  0.079  0.000  0.013  0.000  0.000  0.000  0.000  0.000  0.000  0.092
    6  0.027  0.002  0.002  0.000  0.000  0.000  0.000  0.000  0.000  0.030
    7  0.000  0.000  0.000  0.000  0.000  0.000  0.000  0.000  0.000  0.000
    8  0.000  0.000  0.000  0.000  0.000  0.000  0.000  0.000  0.000  0.000
    9  0.000  0.000  0.000  0.000  0.000  0.000  0.000  0.000  0.000  0.000
   10  0.000  0.000  0.000  0.000  0.000  0.000  0.000  0.000  0.000  0.000
   11  0.043  0.001  0.005  0.000  0.000  0.000  0.000  0.000  0.000  0.050
   12  0.039  0.006  0.000  0.000  0.000  0.000  0.000  0.000  0.000  0.045
   13  0.003  0.000  0.000  0.000  0.000  0.000  0.000  0.000  0.000  0.004
   14  0.001  0.000  0.000  0.000  0.000  0.000  0.000  0.000  0.000  0.001
   15  0.332  0.001  0.001  0.004  0.000  0.000  0.000  0.000  0.000  0.338
   16  0.131  0.017  0.006  0.000  0.000  0.000  0.000  0.000  0.000  0.155
tot    0.684  0.033  0.094  0.005  0.000  0.000  0.000  0.000  0.000  0.816
 
band     4 # energy  -19.67999077 # occ.  2.00000000
 
ion      s     py     pz     px    dxy    dyz    dz2    dxz  x2-y2    tot
    1  0.082  0.007  0.000  0.000  0.000  0.000  0.000  0.000  0.000  0.089
    2  0.247  0.001  0.000  0.000  0.000  0.000  0.000  0.000  0.000  0.248
    3  0.081  0.003  0.018  0.000  0.000  0.000  0.000  0.000  0.000  0.101
    4  0.000  0.012  0.008  0.000  0.000  0.000  0.000  0.000  0.000  0.020
    5  0.003  0.013  0.005  0.000  0.000  0.000  0.000  0.000  0.000  0.021
    6  0.073  0.004  0.009  0.000  0.000  0.000  0.000  0.000  0.000  0.085
    7  0.014  0.000  0.007  0.000  0.000  0.000  0.000  0.000  0.000  0.021
    8  0.008  0.000  0.000  0.000  0.000  0.000  0.000  0.000  0.000  0.009
    9  0.008  0.000  0.000  0.000  0.000  0.000  0.000  0.000  0.000  0.009
   10  0.008  0.000  0.001  0.000  0.000  0.000  0.000  0.000  0.000  0.009
   11  0.001  0.000  0.000  0.000  0.000  0.000  0.000  0.000  0.000  0.001
   12  0.000  0.000  0.000  0.000  0.000  0.000  0.000  0.000  0.000  0.000
   13  0.000  0.000  0.000  0.000  0.000  0.000  0.000  0.000  0.000  0.000
   14  0.005  0.000  0.001  0.000  0.000  0.000  0.000  0.000  0.000  0.006
   15  0.004  0.000  0.000  0.000  0.000  0.000  0.000  0.000  0.000  0.005
   16  0.091  0.003  0.000  0.000  0.000  0.000  0.000  0.000  0.000  0.095
tot    0.626  0.044  0.048  0.001  0.000  0.000  0.000  0.000  0.000  0.719
 
band     5 # energy  -17.65511100 # occ.  2.00000000
 
ion      s     py     pz     px    dxy    dyz    dz2    dxz  x2-y2    tot
    1  0.000  0.000  0.000  0.000  0.000  0.000  0.000  0.000  0.000  0.001
    2  0.000  0.000  0.024  0.000  0.000  0.000  0.000  0.000  0.000  0.025
    3  0.116  0.010  0.001  0.000  0.000  0.000  0.000  0.000  0.000  0.127
    4  0.096  0.013  0.007  0.000  0.000  0.000  0.000  0.000  0.000  0.116
    5  0.134  0.005  0.001  0.000  0.000  0.000  0.000  0.000  0.000  0.140
    6  0.126  0.006  0.000  0.000  0.000  0.000  0.000  0.000  0.000  0.133
    7  0.016  0.006  0.015  0.000  0.000  0.000  0.000  0.000  0.000  0.037
    8  0.000  0.000  0.000  0.000  0.000  0.000  0.000  0.000  0.000  0.000
    9  0.000  0.000  0.000  0.000  0.000  0.000  0.000  0.000  0.000  0.000
   10  0.000  0.000  0.000  0.000  0.000  0.000  0.000  0.000  0.000  0.000
   11  0.015  0.001  0.001  0.000  0.000  0.000  0.000  0.000  0.000  0.017
   12  0.017  0.002  0.000  0.000  0.000  0.000  0.000  0.000  0.000  0.020
   13  0.018  0.001  0.001  0.000  0.000  0.000  0.000  0.000  0.000  0.020
   14  0.017  0.001  0.001  0.000  0.000  0.000  0.000  0.000  0.000  0.018
   15  0.050  0.006  0.010  0.002  0.000  0.000  0.000  0.000  0.000  0.068
   16  0.001  0.001  0.040  0.000  0.000  0.000  0.000  0.000  0.000  0.042
tot    0.607  0.052  0.102  0.002  0.000  0.000  0.000  0.000  0.000  0.763
 
band     6 # energy  -17.01838451 # occ.  2.00000000
 
ion      s     py     pz     px    dxy    dyz    dz2    dxz  x2-y2    tot
    1  0.261  0.000  0.000  0.000  0.000  0.000  0.000  0.000  0.000  0.261
    2  0.001  0.058  0.000  0.000  0.000  0.000  0.000  0.000  0.000  0.060
    3  0.049  0.010  0.001  0.000  0.000  0.000  0.000  0.000  0.000  0.060
    4  0.003  0.031  0.005  0.000  0.000  0.000  0.000  0.000  0.000  0.038
    5  0.011  0.018  0.004  0.000  0.000  0.000  0.000  0.000  0.000  0.033
    6  0.056  0.006  0.001  0.000  0.000  0.000  0.000  0.000  0.000  0.063
    7  0.004  0.006  0.003  0.000  0.000  0.000  0.000  0.000  0.000  0.014
    8  0.041  0.001  0.001  0.003  0.000  0.000  0.000  0.000  0.000  0.045
    9  0.041  0.001  0.001  0.003  0.000  0.000  0.000  0.000  0.000  0.045
   10  0.039  0.001  0.003  0.000  0.000  0.000  0.000  0.000  0.000  0.043
   11  0.000  0.000  0.000  0.000  0.000  0.000  0.000  0.000  0.000  0.000
   12  0.002  0.000  0.000  0.000  0.000  0.000  0.000  0.000  0.000  0.002
   13  0.001  0.000  0.000  0.000  0.000  0.000  0.000  0.000  0.000  0.001
   14  0.004  0.000  0.000  0.000  0.000  0.000  0.000  0.000  0.000  0.005
   15  0.000  0.004  0.000  0.000  0.000  0.000  0.000  0.000  0.000  0.005
   16  0.048  0.000  0.001  0.000  0.000  0.000  0.000  0.000  0.000  0.049
tot    0.561  0.135  0.020  0.005  0.000  0.000  0.000  0.000  0.000  0.721
 
band     7 # energy  -14.89165869 # occ.  2.00000000
 
ion      s     py     pz     px    dxy    dyz    dz2    dxz  x2-y2    tot
    1  0.002  0.000  0.003  0.000  0.000  0.000  0.000  0.000  0.000  0.006
    2  0.002  0.001  0.053  0.000  0.000  0.000  0.000  0.000  0.000  0.056
    3  0.060  0.008  0.001  0.000  0.000  0.000  0.000  0.000  0.000  0.069
    4  0.046  0.035  0.008  0.000  0.000  0.000  0.000  0.000  0.000  0.088
    5  0.070  0.034  0.002  0.000  0.000  0.000  0.000  0.000  0.000  0.106
    6  0.078  0.015  0.000  0.000  0.000  0.000  0.000  0.000  0.000  0.093
    7  0.019  0.012  0.065  0.000  0.000  0.000  0.000  0.000  0.000  0.097
    8  0.002  0.000  0.000  0.000  0.000  0.000  0.000  0.000  0.000  0.002
    9  0.002  0.000  0.000  0.000  0.000  0.000  0.000  0.000  0.000  0.002
   10  0.000  0.000  0.000  0.000  0.000  0.000  0.000  0.000  0.000  0.000
   11  0.025  0.001  0.002  0.000  0.000  0.000  0.000  0.000  0.000  0.028
   12  0.001  0.000  0.000  0.000  0.000  0.000  0.000  0.000  0.000  0.002
   13  0.023  0.000  0.002  0.000  0.000  0.000  0.000  0.000  0.000  0.025
   14  0.023  0.000  0.002  0.000  0.000  0.000  0.000  0.000  0.000  0.025
   15  0.009  0.000  0.045  0.002  0.000  0.000  0.000  0.000  0.000  0.055
   16  0.000  0.000  0.136  0.000  0.000  0.000  0.000  0.000  0.000  0.136
tot    0.362  0.107  0.318  0.002  0.000  0.000  0.000  0.000  0.000  0.789
 
band     8 # energy  -14.52313776 # occ.  2.00000000
 
ion      s     py     pz     px    dxy    dyz    dz2    dxz  x2-y2    tot
    1  0.057  0.013  0.001  0.000  0.000  0.000  0.000  0.000  0.000  0.071
    2  0.078  0.012  0.011  0.000  0.000  0.000  0.000  0.000  0.000  0.101
    3  0.000  0.072  0.046  0.000  0.000  0.000  0.000  0.000  0.000  0.119
    4  0.050  0.026  0.028  0.000  0.000  0.000  0.000  0.000  0.000  0.105
    5  0.028  0.005  0.014  0.000  0.000  0.000  0.000  0.000  0.000  0.047
    6  0.010  0.011  0.020  0.000  0.000  0.000  0.000  0.000  0.000  0.041
    7  0.001  0.028  0.000  0.000  0.000  0.000  0.000  0.000  0.000  0.029
    8  0.015  0.000  0.000  0.001  0.000  0.000  0.000  0.000  0.000  0.016
    9  0.015  0.000  0.000  0.001  0.000  0.000  0.000  0.000  0.000  0.016
   10  0.023  0.000  0.002  0.000  0.000  0.000  0.000  0.000  0.000  0.024
   11  0.001  0.001  0.000  0.000  0.000  0.000  0.000  0.000  0.000  0.002
   12  0.042  0.004  0.000  0.000  0.000  0.000  0.000  0.000  0.000  0.046
   13  0.012  0.001  0.000  0.000  0.000  0.000  0.000  0.000  0.000  0.013
   14  0.009  0.000  0.000  0.000  0.000  0.000  0.000  0.000  0.000  0.009
   15  0.011  0.065  0.014  0.002  0.000  0.000  0.000  0.000  0.000  0.092
   16  0.021  0.000  0.001  0.000  0.000  0.000  0.000  0.000  0.000  0.022
tot    0.372  0.240  0.139  0.005  0.000  0.000  0.000  0.000  0.000  0.754
 
band     9 # energy  -12.93822224 # occ.  2.00000000
 
ion      s     py     pz     px    dxy    dyz    dz2    dxz  x2-y2    tot
    1  0.001  0.001  0.002  0.000  0.000  0.000  0.000  0.000  0.000  0.003
    2  0.003  0.005  0.011  0.000  0.000  0.000  0.000  0.000  0.000  0.018
    3  0.004  0.063  0.022  0.000  0.000  0.000  0.000  0.000  0.000  0.090
    4  0.000  0.062  0.003  0.000  0.000  0.000  0.000  0.000  0.000  0.065
    5  0.005  0.004  0.029  0.000  0.000  0.000  0.000  0.000  0.000  0.038
    6  0.004  0.006  0.023  0.000  0.000  0.000  0.000  0.000  0.000  0.033
    7  0.013  0.006  0.212  0.000  0.000  0.000  0.000  0.000  0.000  0.232
    8  0.000  0.000  0.000  0.000  0.000  0.000  0.000  0.000  0.000  0.000
    9  0.000  0.000  0.000  0.000  0.000  0.000  0.000  0.000  0.000  0.000
   10  0.002  0.000  0.000  0.000  0.000  0.000  0.000  0.000  0.000  0.002
   11  0.074  0.001  0.004  0.001  0.000  0.000  0.000  0.000  0.000  0.080
   12  0.017  0.001  0.001  0.000  0.000  0.000  0.000  0.000  0.000  0.019
   13  0.012  0.001  0.000  0.000  0.000  0.000  0.000  0.000  0.000  0.013
   14  0.009  0.000  0.000  0.000  0.000  0.000  0.000  0.000  0.000  0.010
   15  0.000  0.038  0.106  0.002  0.000  0.000  0.000  0.000  0.000  0.146
   16  0.000  0.009  0.021  0.000  0.000  0.000  0.000  0.000  0.000  0.030
tot    0.145  0.197  0.435  0.003  0.000  0.000  0.000  0.000  0.000  0.780
 
band    10 # energy  -12.16151168 # occ.  2.00000000
 
ion      s     py     pz     px    dxy    dyz    dz2    dxz  x2-y2    tot
    1  0.003  0.008  0.015  0.000  0.000  0.000  0.000  0.000  0.000  0.025
    2  0.001  0.010  0.064  0.000  0.000  0.000  0.000  0.000  0.000  0.075
    3  0.001  0.002  0.085  0.000  0.000  0.000  0.000  0.000  0.000  0.088
    4  0.009  0.000  0.000  0.000  0.000  0.000  0.000  0.000  0.000  0.009
    5  0.027  0.015  0.022  0.000  0.000  0.000  0.000  0.000  0.000  0.064
    6  0.012  0.080  0.000  0.000  0.000  0.000  0.000  0.000  0.000  0.092
    7  0.010  0.110  0.113  0.000  0.000  0.000  0.000  0.000  0.000  0.233
    8  0.008  0.000  0.000  0.001  0.000  0.000  0.000  0.000  0.000  0.009
    9  0.009  0.000  0.000  0.001  0.000  0.000  0.000  0.000  0.000  0.009
   10  0.001  0.000  0.000  0.000  0.000  0.000  0.000  0.000  0.000  0.002
   11  0.022  0.000  0.001  0.000  0.000  0.000  0.000  0.000  0.000  0.024
   12  0.006  0.000  0.000  0.000  0.000  0.000  0.000  0.000  0.000  0.007
   13  0.017  0.001  0.000  0.000  0.000  0.000  0.000  0.000  0.000  0.018
   14  0.025  0.000  0.002  0.000  0.000  0.000  0.000  0.000  0.000  0.028
   15  0.000  0.011  0.032  0.001  0.000  0.000  0.000  0.000  0.000  0.044
   16  0.034  0.000  0.004  0.000  0.000  0.000  0.000  0.000  0.000  0.039
tot    0.186  0.238  0.339  0.002  0.000  0.000  0.000  0.000  0.000  0.766
 
band    11 # energy  -11.93230733 # occ.  2.00000000
 
ion      s     py     pz     px    dxy    dyz    dz2    dxz  x2-y2    tot
    1  0.008  0.038  0.000  0.000  0.000  0.000  0.000  0.000  0.000  0.046
    2  0.051  0.006  0.000  0.000  0.000  0.000  0.000  0.000  0.000  0.057
    3  0.008  0.007  0.003  0.001  0.000  0.000  0.000  0.000  0.000  0.020
    4  0.002  0.017  0.105  0.002  0.000  0.000  0.000  0.000  0.000  0.127
    5  0.005  0.057  0.001  0.000  0.000  0.000  0.000  0.000  0.000  0.062
    6  0.010  0.018  0.004  0.000  0.000  0.000  0.000  0.000  0.000  0.032
    7  0.001  0.012  0.016  0.001  0.000  0.000  0.000  0.000  0.000  0.030
    8  0.010  0.000  0.000  0.001  0.000  0.000  0.000  0.000  0.000  0.011
    9  0.009  0.000  0.000  0.001  0.000  0.000  0.000  0.000  0.000  0.010
   10  0.009  0.000  0.001  0.000  0.000  0.000  0.000  0.000  0.000  0.010
   11  0.006  0.002  0.000  0.000  0.000  0.000  0.000  0.000  0.000  0.008
   12  0.061  0.004  0.001  0.000  0.000  0.000  0.000  0.000  0.000  0.067
   13  0.020  0.000  0.001  0.000  0.000  0.000  0.000  0.000  0.000  0.021
   14  0.003  0.000  0.000  0.000  0.000  0.000  0.000  0.000  0.000  0.003
   15  0.000  0.121  0.088  0.008  0.000  0.000  0.000  0.000  0.000  0.218
   16  0.001  0.016  0.039  0.000  0.000  0.000  0.000  0.000  0.000  0.056
tot    0.205  0.299  0.262  0.014  0.000  0.000  0.000  0.000  0.000  0.780
 
band    12 # energy  -11.00166073 # occ.  2.00000000
 
ion      s     py     pz     px    dxy    dyz    dz2    dxz  x2-y2    tot
    1  0.000  0.000  0.020  0.000  0.000  0.000  0.000  0.000  0.000  0.021
    2  0.001  0.002  0.032  0.000  0.000  0.000  0.000  0.000  0.000  0.035
    3  0.003  0.046  0.002  0.001  0.000  0.000  0.000  0.000  0.000  0.052
    4  0.000  0.031  0.010  0.001  0.000  0.000  0.000  0.000  0.000  0.041
    5  0.001  0.033  0.006  0.000  0.000  0.000  0.000  0.000  0.000  0.040
    6  0.003  0.019  0.019  0.000  0.000  0.000  0.000  0.000  0.000  0.041
    7  0.000  0.035  0.021  0.002  0.000  0.000  0.000  0.000  0.000  0.058
    8  0.002  0.000  0.000  0.000  0.000  0.000  0.000  0.000  0.000  0.003
    9  0.001  0.000  0.000  0.000  0.000  0.000  0.000  0.000  0.000  0.001
   10  0.013  0.000  0.001  0.000  0.000  0.000  0.000  0.000  0.000  0.014
   11  0.094  0.001  0.006  0.001  0.000  0.000  0.000  0.000  0.000  0.101
   12  0.097  0.006  0.000  0.001  0.000  0.000  0.000  0.000  0.000  0.105
   13  0.002  0.000  0.000  0.000  0.000  0.000  0.000  0.000  0.000  0.002
   14  0.005  0.001  0.000  0.000  0.000  0.000  0.000  0.000  0.000  0.006
   15  0.000  0.164  0.057  0.001  0.000  0.000  0.000  0.000  0.000  0.222
   16  0.003  0.001  0.065  0.000  0.000  0.000  0.000  0.000  0.000  0.070
tot    0.227  0.338  0.240  0.007  0.000  0.000  0.000  0.000  0.000  0.812
 
band    13 # energy  -10.73821684 # occ.  2.00000000
 
ion      s     py     pz     px    dxy    dyz    dz2    dxz  x2-y2    tot
    1  0.000  0.001  0.000  0.027  0.000  0.000  0.000  0.000  0.000  0.029
    2  0.001  0.001  0.000  0.032  0.000  0.000  0.000  0.000  0.000  0.034
    3  0.000  0.001  0.000  0.092  0.000  0.000  0.000  0.000  0.000  0.093
    4  0.001  0.000  0.000  0.037  0.000  0.000  0.000  0.000  0.000  0.038
    5  0.000  0.003  0.003  0.006  0.000  0.000  0.000  0.000  0.000  0.012
    6  0.000  0.001  0.001  0.007  0.000  0.000  0.000  0.000  0.000  0.010
    7  0.000  0.000  0.002  0.339  0.000  0.000  0.000  0.000  0.000  0.341
    8  0.008  0.000  0.000  0.000  0.000  0.000  0.000  0.000  0.000  0.009
    9  0.017  0.000  0.000  0.000  0.000  0.000  0.000  0.000  0.000  0.018
   10  0.000  0.000  0.000  0.000  0.000  0.000  0.000  0.000  0.000  0.000
   11  0.001  0.000  0.000  0.000  0.000  0.000  0.000  0.000  0.000  0.001
   12  0.001  0.000  0.000  0.000  0.000  0.000  0.000  0.000  0.000  0.001
   13  0.004  0.000  0.000  0.000  0.000  0.000  0.000  0.000  0.000  0.005
   14  0.000  0.000  0.000  0.000  0.000  0.000  0.000  0.000  0.000  0.000
   15  0.001  0.001  0.001  0.010  0.000  0.000  0.000  0.000  0.000  0.014
   16  0.000  0.001  0.000  0.017  0.000  0.000  0.000  0.000  0.000  0.018
tot    0.035  0.010  0.009  0.569  0.000  0.000  0.000  0.000  0.000  0.622
 
band    14 # energy  -10.34824077 # occ.  2.00000000
 
ion      s     py     pz     px    dxy    dyz    dz2    dxz  x2-y2    tot
    1  0.001  0.022  0.001  0.002  0.000  0.000  0.000  0.000  0.000  0.025
    2  0.001  0.026  0.010  0.001  0.000  0.000  0.000  0.000  0.000  0.038
    3  0.010  0.013  0.007  0.002  0.000  0.000  0.000  0.000  0.000  0.032
    4  0.004  0.018  0.030  0.000  0.000  0.000  0.000  0.000  0.000  0.053
    5  0.001  0.046  0.085  0.000  0.000  0.000  0.000  0.000  0.000  0.131
    6  0.003  0.033  0.107  0.000  0.000  0.000  0.000  0.000  0.000  0.142
    7  0.000  0.004  0.037  0.012  0.000  0.000  0.000  0.000  0.000  0.052
    8  0.009  0.000  0.000  0.000  0.000  0.000  0.000  0.000  0.000  0.010
    9  0.002  0.000  0.000  0.000  0.000  0.000  0.000  0.000  0.000  0.002
   10  0.001  0.000  0.000  0.000  0.000  0.000  0.000  0.000  0.000  0.002
   11  0.005  0.001  0.000  0.000  0.000  0.000  0.000  0.000  0.000  0.006
   12  0.006  0.000  0.000  0.000  0.000  0.000  0.000  0.000  0.000  0.007
   13  0.072  0.001  0.002  0.000  0.000  0.000  0.000  0.000  0.000  0.076
   14  0.073  0.001  0.003  0.000  0.000  0.000  0.000  0.000  0.000  0.077
   15  0.002  0.016  0.037  0.002  0.000  0.000  0.000  0.000  0.000  0.057
   16  0.001  0.006  0.015  0.000  0.000  0.000  0.000  0.000  0.000  0.023
tot    0.190  0.187  0.335  0.019  0.000  0.000  0.000  0.000  0.000  0.730
 
band    15 # energy   -9.48384042 # occ.  2.00000000
 
ion      s     py     pz     px    dxy    dyz    dz2    dxz  x2-y2    tot
    1  0.000  0.000  0.000  0.227  0.000  0.000  0.000  0.000  0.000  0.228
    2  0.000  0.000  0.000  0.030  0.000  0.000  0.000  0.000  0.000  0.030
    3  0.000  0.000  0.000  0.003  0.000  0.000  0.000  0.000  0.000  0.003
    4  0.000  0.000  0.000  0.002  0.000  0.000  0.000  0.000  0.000  0.002
    5  0.000  0.000  0.000  0.001  0.000  0.000  0.000  0.000  0.000  0.002
    6  0.000  0.001  0.001  0.006  0.000  0.000  0.000  0.000  0.000  0.008
    7  0.000  0.004  0.000  0.141  0.000  0.000  0.000  0.000  0.000  0.144
    8  0.119  0.001  0.003  0.002  0.000  0.000  0.000  0.000  0.000  0.125
    9  0.106  0.002  0.003  0.001  0.000  0.000  0.000  0.000  0.000  0.112
   10  0.000  0.000  0.000  0.002  0.000  0.000  0.000  0.000  0.000  0.002
   11  0.000  0.000  0.000  0.000  0.000  0.000  0.000  0.000  0.000  0.000
   12  0.000  0.000  0.000  0.000  0.000  0.000  0.000  0.000  0.000  0.000
   13  0.000  0.000  0.000  0.000  0.000  0.000  0.000  0.000  0.000  0.000
   14  0.002  0.000  0.000  0.000  0.000  0.000  0.000  0.000  0.000  0.002
   15  0.000  0.000  0.000  0.001  0.000  0.000  0.000  0.000  0.000  0.002
   16  0.000  0.000  0.001  0.000  0.000  0.000  0.000  0.000  0.000  0.001
tot    0.228  0.009  0.008  0.416  0.000  0.000  0.000  0.000  0.000  0.661
 
band    16 # energy   -9.39148934 # occ.  2.00000000
 
ion      s     py     pz     px    dxy    dyz    dz2    dxz  x2-y2    tot
    1  0.001  0.049  0.006  0.002  0.000  0.000  0.000  0.000  0.000  0.057
    2  0.018  0.026  0.001  0.000  0.000  0.000  0.000  0.000  0.000  0.046
    3  0.007  0.000  0.006  0.000  0.000  0.000  0.000  0.000  0.000  0.013
    4  0.000  0.012  0.016  0.001  0.000  0.000  0.000  0.000  0.000  0.029
    5  0.010  0.023  0.034  0.000  0.000  0.000  0.000  0.000  0.000  0.068
    6  0.009  0.047  0.031  0.000  0.000  0.000  0.000  0.000  0.000  0.087
    7  0.000  0.214  0.023  0.011  0.000  0.000  0.000  0.000  0.000  0.248
    8  0.004  0.000  0.000  0.000  0.000  0.000  0.000  0.000  0.000  0.004
    9  0.015  0.000  0.000  0.001  0.000  0.000  0.000  0.000  0.000  0.015
   10  0.000  0.000  0.000  0.000  0.000  0.000  0.000  0.000  0.000  0.000
   11  0.003  0.000  0.000  0.000  0.000  0.000  0.000  0.000  0.000  0.003
   12  0.000  0.000  0.000  0.000  0.000  0.000  0.000  0.000  0.000  0.000
   13  0.018  0.001  0.000  0.000  0.000  0.000  0.000  0.000  0.000  0.019
   14  0.085  0.000  0.003  0.000  0.000  0.000  0.000  0.000  0.000  0.089
   15  0.002  0.000  0.006  0.001  0.000  0.000  0.000  0.000  0.000  0.010
   16  0.002  0.000  0.068  0.001  0.000  0.000  0.000  0.000  0.000  0.072
tot    0.173  0.374  0.195  0.019  0.000  0.000  0.000  0.000  0.000  0.761
 
band    17 # energy   -9.08745566 # occ.  2.00000000
 
ion      s     py     pz     px    dxy    dyz    dz2    dxz  x2-y2    tot
    1  0.000  0.029  0.184  0.000  0.000  0.000  0.000  0.000  0.000  0.213
    2  0.000  0.028  0.002  0.000  0.000  0.000  0.000  0.000  0.000  0.030
    3  0.001  0.006  0.004  0.000  0.000  0.000  0.000  0.000  0.000  0.011
    4  0.000  0.004  0.002  0.003  0.000  0.000  0.000  0.000  0.000  0.009
    5  0.001  0.002  0.023  0.001  0.000  0.000  0.000  0.000  0.000  0.028
    6  0.004  0.000  0.012  0.000  0.000  0.000  0.000  0.000  0.000  0.016
    7  0.000  0.069  0.037  0.004  0.000  0.000  0.000  0.000  0.000  0.110
    8  0.023  0.001  0.000  0.001  0.000  0.000  0.000  0.000  0.000  0.026
    9  0.015  0.001  0.000  0.001  0.000  0.000  0.000  0.000  0.000  0.018
   10  0.170  0.001  0.006  0.000  0.000  0.000  0.000  0.000  0.000  0.177
   11  0.005  0.000  0.000  0.000  0.000  0.000  0.000  0.000  0.000  0.005
   12  0.004  0.000  0.000  0.000  0.000  0.000  0.000  0.000  0.000  0.005
   13  0.025  0.000  0.001  0.000  0.000  0.000  0.000  0.000  0.000  0.026
   14  0.013  0.000  0.000  0.000  0.000  0.000  0.000  0.000  0.000  0.013
   15  0.000  0.007  0.002  0.002  0.000  0.000  0.000  0.000  0.000  0.011
   16  0.000  0.002  0.013  0.003  0.000  0.000  0.000  0.000  0.000  0.019
tot    0.262  0.151  0.287  0.017  0.000  0.000  0.000  0.000  0.000  0.717
 
band    18 # energy   -9.01819861 # occ.  2.00000000
 
ion      s     py     pz     px    dxy    dyz    dz2    dxz  x2-y2    tot
    1  0.000  0.000  0.008  0.015  0.000  0.000  0.000  0.000  0.000  0.023
    2  0.000  0.000  0.000  0.001  0.000  0.000  0.000  0.000  0.000  0.002
    3  0.000  0.000  0.000  0.001  0.000  0.000  0.000  0.000  0.000  0.002
    4  0.000  0.000  0.004  0.104  0.000  0.000  0.000  0.000  0.000  0.108
    5  0.000  0.000  0.003  0.049  0.000  0.000  0.000  0.000  0.000  0.052
    6  0.000  0.000  0.000  0.013  0.000  0.000  0.000  0.000  0.000  0.014
    7  0.000  0.002  0.000  0.150  0.000  0.000  0.000  0.000  0.000  0.151
    8  0.003  0.000  0.000  0.000  0.000  0.000  0.000  0.000  0.000  0.003
    9  0.017  0.000  0.000  0.000  0.000  0.000  0.000  0.000  0.000  0.018
   10  0.006  0.000  0.000  0.000  0.000  0.000  0.000  0.000  0.000  0.007
   11  0.000  0.000  0.000  0.001  0.000  0.000  0.000  0.000  0.000  0.001
   12  0.000  0.000  0.000  0.001  0.000  0.000  0.000  0.000  0.000  0.001
   13  0.002  0.000  0.000  0.000  0.000  0.000  0.000  0.000  0.000  0.002
   14  0.000  0.000  0.000  0.000  0.000  0.000  0.000  0.000  0.000  0.000
   15  0.002  0.000  0.006  0.055  0.000  0.000  0.000  0.000  0.000  0.064
   16  0.000  0.000  0.003  0.143  0.000  0.000  0.000  0.000  0.000  0.146
tot    0.032  0.003  0.026  0.534  0.000  0.000  0.000  0.000  0.000  0.595
 
band    19 # energy   -8.66146532 # occ.  2.00000000
 
ion      s     py     pz     px    dxy    dyz    dz2    dxz  x2-y2    tot
    1  0.001  0.116  0.019  0.000  0.000  0.000  0.000  0.000  0.000  0.136
    2  0.001  0.137  0.000  0.000  0.000  0.000  0.000  0.000  0.000  0.138
    3  0.002  0.016  0.012  0.000  0.000  0.000  0.000  0.000  0.000  0.030
    4  0.008  0.026  0.000  0.000  0.000  0.000  0.000  0.000  0.000  0.034
    5  0.006  0.024  0.023  0.000  0.000  0.000  0.000  0.000  0.000  0.053
    6  0.002  0.025  0.006  0.000  0.000  0.000  0.000  0.000  0.000  0.032
    7  0.000  0.137  0.026  0.000  0.000  0.000  0.000  0.000  0.000  0.163
    8  0.024  0.000  0.000  0.001  0.000  0.000  0.000  0.000  0.000  0.026
    9  0.023  0.000  0.000  0.001  0.000  0.000  0.000  0.000  0.000  0.025
   10  0.000  0.001  0.000  0.000  0.000  0.000  0.000  0.000  0.000  0.001
   11  0.002  0.000  0.000  0.000  0.000  0.000  0.000  0.000  0.000  0.002
   12  0.003  0.000  0.000  0.000  0.000  0.000  0.000  0.000  0.000  0.003
   13  0.020  0.000  0.001  0.000  0.000  0.000  0.000  0.000  0.000  0.021
   14  0.001  0.000  0.000  0.000  0.000  0.000  0.000  0.000  0.000  0.001
   15  0.000  0.004  0.000  0.000  0.000  0.000  0.000  0.000  0.000  0.004
   16  0.011  0.046  0.008  0.000  0.000  0.000  0.000  0.000  0.000  0.064
tot    0.105  0.533  0.094  0.003  0.000  0.000  0.000  0.000  0.000  0.735
 
band    20 # energy   -8.10067114 # occ.  2.00000000
 
ion      s     py     pz     px    dxy    dyz    dz2    dxz  x2-y2    tot
    1  0.000  0.000  0.049  0.000  0.000  0.000  0.000  0.000  0.000  0.049
    2  0.000  0.000  0.125  0.000  0.000  0.000  0.000  0.000  0.000  0.126
    3  0.008  0.028  0.026  0.000  0.000  0.000  0.000  0.000  0.000  0.063
    4  0.009  0.007  0.009  0.000  0.000  0.000  0.000  0.000  0.000  0.025
    5  0.000  0.014  0.033  0.001  0.000  0.000  0.000  0.000  0.000  0.048
    6  0.000  0.020  0.079  0.001  0.000  0.000  0.000  0.000  0.000  0.100
    7  0.000  0.072  0.079  0.000  0.000  0.000  0.000  0.000  0.000  0.151
    8  0.014  0.000  0.000  0.001  0.000  0.000  0.000  0.000  0.000  0.015
    9  0.009  0.000  0.000  0.001  0.000  0.000  0.000  0.000  0.000  0.010
   10  0.047  0.000  0.001  0.000  0.000  0.000  0.000  0.000  0.000  0.048
   11  0.002  0.000  0.000  0.000  0.000  0.000  0.000  0.000  0.000  0.002
   12  0.000  0.000  0.000  0.000  0.000  0.000  0.000  0.000  0.000  0.001
   13  0.052  0.000  0.001  0.000  0.000  0.000  0.000  0.000  0.000  0.054
   14  0.036  0.001  0.000  0.000  0.000  0.000  0.000  0.000  0.000  0.037
   15  0.001  0.002  0.012  0.001  0.000  0.000  0.000  0.000  0.000  0.015
   16  0.003  0.000  0.016  0.002  0.000  0.000  0.000  0.000  0.000  0.020
tot    0.182  0.146  0.430  0.006  0.000  0.000  0.000  0.000  0.000  0.764
 
band    21 # energy   -7.10191289 # occ.  2.00000000
 
ion      s     py     pz     px    dxy    dyz    dz2    dxz  x2-y2    tot
    1  0.000  0.000  0.000  0.012  0.000  0.000  0.000  0.000  0.000  0.012
    2  0.000  0.000  0.000  0.031  0.000  0.000  0.000  0.000  0.000  0.032
    3  0.000  0.000  0.000  0.000  0.000  0.000  0.000  0.000  0.000  0.000
    4  0.000  0.000  0.003  0.044  0.000  0.000  0.000  0.000  0.000  0.048
    5  0.000  0.000  0.000  0.086  0.000  0.000  0.000  0.000  0.000  0.086
    6  0.000  0.000  0.000  0.092  0.000  0.000  0.000  0.000  0.000  0.093
    7  0.000  0.000  0.000  0.001  0.000  0.000  0.000  0.000  0.000  0.001
    8  0.009  0.000  0.000  0.000  0.000  0.000  0.000  0.000  0.000  0.009
    9  0.011  0.000  0.000  0.000  0.000  0.000  0.000  0.000  0.000  0.011
   10  0.000  0.000  0.000  0.000  0.000  0.000  0.000  0.000  0.000  0.000
   11  0.001  0.000  0.001  0.003  0.000  0.000  0.000  0.000  0.000  0.004
   12  0.001  0.000  0.000  0.003  0.000  0.000  0.000  0.000  0.000  0.004
   13  0.001  0.000  0.000  0.001  0.000  0.000  0.000  0.000  0.000  0.002
   14  0.000  0.000  0.000  0.001  0.000  0.000  0.000  0.000  0.000  0.001
   15  0.007  0.001  0.007  0.200  0.000  0.000  0.000  0.000  0.000  0.216
   16  0.000  0.001  0.001  0.013  0.000  0.000  0.000  0.000  0.000  0.014