<?xml version="1.0" encoding="ISO-8859-1"?>
<modeling>
 <generator>
  <i name="program" type="string">vasp </i>
  <i name="version" type="string">6.4.1  </i>
  <i name="subversion" type="string">05Apr23 (build Jun 16 2023 21:25:53) gamma-only                       parallel </i>
  <i name="platform" type="string">LinuxIFC </i>
  <i name="date" type="string">2024 07 14 </i>
  <i name="time" type="string">18:49:36 </i>
 </generator>
 <incar>
  <i type="string" name="SYSTEM">QM9</i>
  <i type="string" name="ALGO">V</i>
  <i type="int" name="NELM">   150</i>
  <i type="int" name="NELMDL">   -20</i>
  <i type="int" name="NELMIN">     6</i>
  <i type="int" name="IBRION">     2</i>
  <i name="EDIFF">      0.00001000</i>
  <i name="EDIFFG">     -0.02000000</i>
  <i type="int" name="NSW">    10</i>
  <i type="int" name="ISIF">     2</i>
  <i type="int" name="ISYM">     0</i>
  <i name="ENCUT">    500.00000000</i>
  <i name="POTIM">      0.20000000</i>
  <i type="string" name="LREAL">Auto</i>
  <i type="int" name="ISMEAR">     0</i>
  <i name="SIGMA">      0.10000000</i>
  <i type="logical" name="LWAVE"> F  </i>
  <i type="logical" name="LCHARG"> F  </i>
  <i type="int" name="LORBIT">    11</i>
 </incar>
 <primitive_cell>
  <structure name="primitive_cell" >
   <crystal>
    <varray name="basis" >
     <v>       7.75760000       0.00000000       0.00000000 </v>
     <v>       0.00000000      11.70620000       0.00000000 </v>
     <v>       0.00000000       0.00000000      11.32900000 </v>
    </varray>
    <i name="volume">   1028.80934195 </i>
    <varray name="rec_basis" >
     <v>       0.12890585       0.00000000       0.00000000 </v>
     <v>       0.00000000       0.08542482       0.00000000 </v>
     <v>       0.00000000       0.00000000       0.08826904 </v>
    </varray>
   </crystal>
   <varray name="positions" >
    <v>       0.49996133       0.70872700       0.54288993 </v>
    <v>       0.49957461       0.58023099       0.54553800 </v>
    <v>       0.49912344       0.51803318       0.44205137 </v>
    <v>       0.49907188       0.39819924       0.44194545 </v>
    <v>       0.50067031       0.39829321       0.64379910 </v>
    <v>       0.49965195       0.51653824       0.65040162 </v>
    <v>       0.50015469       0.57222668       0.33686115 </v>
    <v>       0.61328246       0.74144470       0.49621326 </v>
    <v>       0.38671754       0.74170952       0.49633683 </v>
    <v>       0.50018047       0.74372555       0.63222703 </v>
    <v>       0.53421161       0.38003793       0.26480713 </v>
    <v>       0.52811437       0.25627445       0.34379910 </v>
    <v>       0.50183046       0.34736294       0.72403566 </v>
    <v>       0.49988398       0.55946422       0.73519287 </v>
    <v>       0.49133753       0.33866669       0.33706417 </v>
    <v>       0.50092812       0.33926466       0.54270456 </v>
   </varray>
  </structure>
  <varray name="primitive_index" >
   <v type="int" >        1 </v>
   <v type="int" >        2 </v>
   <v type="int" >        3 </v>
   <v type="int" >        4 </v>
   <v type="int" >        5 </v>
   <v type="int" >        6 </v>
   <v type="int" >        7 </v>
   <v type="int" >        8 </v>
   <v type="int" >        9 </v>
   <v type="int" >       10 </v>
   <v type="int" >       11 </v>
   <v type="int" >       12 </v>
   <v type="int" >       13 </v>
   <v type="int" >       14 </v>
   <v type="int" >       15 </v>
   <v type="int" >       16 </v>
  </varray>
 </primitive_cell>
 <kpoints>
  <generation param="Gamma">
   <v type="int" name="divisions">       1        1        1 </v>
   <v name="usershift">      0.00000000       0.00000000       0.00000000 </v>
   <v name="genvec1">      1.00000000       0.00000000       0.00000000 </v>
   <v name="genvec2">      0.00000000       1.00000000       0.00000000 </v>
   <v name="genvec3">      0.00000000       0.00000000       1.00000000 </v>
   <v name="shift">      0.00000000       0.00000000       0.00000000 </v>
  </generation>
  <varray name="kpointlist" >
   <v>       0.00000000       0.00000000       0.00000000 </v>
  </varray>
  <varray name="weights" >
   <v>       1.00000000 </v>
  </varray>
 </kpoints>
 <parameters>
  <separator name="general" >
   <i type="string" name="SYSTEM">QM9</i>
   <i type="logical" name="LCOMPAT"> F  </i>
  </separator>
  <separator name="electronic" >
   <i type="string" name="PREC">normal</i>
   <i name="ENMAX">    500.00000000</i>
   <i name="ENAUG">    644.87300000</i>
   <i name="EDIFF">      0.00001000</i>
   <i type="int" name="IALGO">    48</i>
   <i type="int" name="IWAVPR">    11</i>
   <i type="int" name="NBANDS">    36</i>
   <i type="int" name="NBANDSLOW">    -1</i>
   <i type="int" name="NBANDSHIGH">    -1</i>
   <i name="NELECT">     48.00000000</i>
   <i type="int" name="TURBO">     0</i>
   <i type="int" name="IRESTART">     0</i>
   <i type="int" name="NREBOOT">     0</i>
   <i type="int" name="NMIN">     0</i>
   <i name="EREF">      0.00000000</i>
   <separator name="electronic smearing" >
    <i type="int" name="ISMEAR">     0</i>
    <i name="SIGMA">      0.10000000</i>
    <i name="KSPACING">      0.50000000</i>
    <i type="logical" name="KGAMMA"> T  </i>
    <i type="logical" name="KBLOWUP"> T  </i>
   </separator>
   <separator name="electronic projectors" >
    <i type="logical" name="LREAL"> T  </i>
    <v name="ROPT">     -0.00050000     -0.00050000     -0.00050000     -0.00050000</v>
    <i type="int" name="LMAXPAW">  -100</i>
    <i type="int" name="LMAXMIX">     2</i>
    <i type="logical" name="NLSPLINE"> F  </i>
   </separator>
   <separator name="electronic startup" >
    <i type="int" name="ISTART">     0</i>
    <i type="int" name="ICHARG">     2</i>
    <i type="int" name="INIWAV">     1</i>
   </separator>
   <separator name="electronic spin" >
    <i type="int" name="ISPIN">     1</i>
    <i type="logical" name="LNONCOLLINEAR"> F  </i>
    <v name="MAGMOM">      1.00000000      1.00000000      1.00000000      1.00000000      1.00000000      1.00000000      1.00000000      1.00000000      1.00000000      1.00000000      1.00000000      1.00000000      1.00000000      1.00000000      1.00000000      1.00000000</v>
    <i name="NUPDOWN">     -1.00000000</i>
    <i type="logical" name="LSORBIT"> F  </i>
    <v name="SAXIS">      0.00000000      0.00000000      1.00000000</v>
    <i type="logical" name="LSPIRAL"> F  </i>
    <v name="QSPIRAL">      0.00000000      0.00000000      0.00000000</v>
    <i type="logical" name="LZEROZ"> F  </i>
   </separator>
   <separator name="electronic exchange-correlation" >
    <i type="logical" name="LASPH"> F  </i>
    <i type="logical" name="LMETAGGA"> F  </i>
   </separator>
   <separator name="electronic convergence" >
    <i type="int" name="NELM">   150</i>
    <i type="int" name="NELMDL">   -20</i>
    <i type="int" name="NELMIN">     6</i>
    <i name="ENINI">    500.00000000</i>
    <separator name="electronic convergence detail" >
     <i type="logical" name="LDIAG"> T  </i>
     <i type="logical" name="LSUBROT"> F  </i>
     <i name="WEIMIN">      0.00100000</i>
     <i name="EBREAK">      0.00000007</i>
     <i name="DEPER">      0.30000000</i>
     <i type="int" name="NRMM">     4</i>
     <i name="TIME">      0.40000000</i>
    </separator>
   </separator>
   <separator name="electronic mixer" >
    <i name="AMIX">      0.40000000</i>
    <i name="BMIX">      1.00000000</i>
    <i name="AMIN">      0.10000000</i>
    <i name="AMIX_MAG">      1.60000000</i>
    <i name="BMIX_MAG">      1.00000000</i>
    <separator name="electronic mixer details" >
     <i type="int" name="IMIX">     4</i>
     <i type="logical" name="MIXFIRST"> F  </i>
     <i type="int" name="MAXMIX">   -45</i>
     <i name="WC">    100.00000000</i>
     <i type="int" name="INIMIX">     1</i>
     <i type="int" name="MIXPRE">     1</i>
     <i type="int" name="MREMOVE">     5</i>
    </separator>
   </separator>
   <separator name="electronic dipolcorrection" >
    <i type="logical" name="LDIPOL"> F  </i>
    <i type="logical" name="LMONO"> F  </i>
    <i type="int" name="IDIPOL">     0</i>
    <i name="EPSILON">      1.00000000</i>
    <v name="DIPOL">   -100.00000000   -100.00000000   -100.00000000</v>
    <i name="EFIELD">      0.00000000</i>
   </separator>
  </separator>
  <separator name="grids" >
   <i type="int" name="NGX">    42</i>
   <i type="int" name="NGY">    64</i>
   <i type="int" name="NGZ">    64</i>
   <i type="int" name="NGXF">    84</i>
   <i type="int" name="NGYF">   128</i>
   <i type="int" name="NGZF">   128</i>
   <i type="logical" name="ADDGRID"> F  </i>
  </separator>
  <separator name="ionic" >
   <i type="int" name="NSW">    10</i>
   <i type="int" name="IBRION">     2</i>
   <i type="int" name="MDALGO">     0</i>
   <i type="int" name="ISIF">     2</i>
   <i name="PSTRESS">      0.00000000</i>
   <i name="EDIFFG">     -0.02000000</i>
   <i type="int" name="NFREE">     1</i>
   <i name="POTIM">      0.20000000</i>
   <i name="SMASS">     -3.00000000</i>
   <i name="SCALEE">      1.00000000</i>
  </separator>
  <separator name="ionic md" >
   <i name="TEBEG">      0.00010000</i>
   <i name="TEEND">      0.00010000</i>
   <i type="int" name="NBLOCK">     1</i>
   <i type="int" name="KBLOCK">    10</i>
   <i type="int" name="NPACO">   256</i>
   <i name="APACO">     10.00000000</i>
  </separator>
  <separator name="symmetry" >
   <i type="int" name="ISYM">     0</i>
   <i name="SYMPREC">      0.00001000</i>
  </separator>
  <separator name="dos" >
   <i type="int" name="LORBIT">    11</i>
   <v name="RWIGS">     -1.00000000     -1.00000000     -1.00000000     -1.00000000</v>
   <i type="int" name="NEDOS">   301</i>
   <i name="EMIN">     10.00000000</i>
   <i name="EMAX">    -10.00000000</i>
   <i name="EFERMI">      0.00000000</i>
  </separator>
  <separator name="writing" >
   <i type="int" name="NWRITE">     2</i>
   <i type="logical" name="LWAVE"> F  </i>
   <i type="logical" name="LDOWNSAMPLE"> F  </i>
   <i type="logical" name="LCHARG"> F  </i>
   <i type="logical" name="LPARD"> F  </i>
   <i type="logical" name="LVTOT"> F  </i>
   <i type="logical" name="LVHAR"> F  </i>
   <i type="logical" name="LELF"> F  </i>
   <i type="logical" name="LOPTICS"> F  </i>
   <v name="STM">      0.00000000      0.00000000      0.00000000      0.00000000      0.00000000      0.00000000      0.00000000</v>
  </separator>
  <separator name="performance" >
   <i type="int" name="NPAR">     4</i>
   <i type="int" name="NSIM">     4</i>
   <i type="int" name="NBLK">    -1</i>
   <i type="logical" name="LPLANE"> T  </i>
   <i type="logical" name="LSCALAPACK"> T  </i>
   <i type="logical" name="LSCAAWARE"> F  </i>
   <i type="logical" name="LSCALU"> F  </i>
   <i type="logical" name="LASYNC"> F  </i>
   <i type="logical" name="LORBITALREAL"> F  </i>
  </separator>
  <separator name="miscellaneous" >
   <i type="int" name="IDIOT">     3</i>
   <i type="int" name="PHON_NSTRUCT">    -1</i>
   <i type="logical" name="LMUSIC"> F  </i>
   <v name="POMASS">     12.01100000     18.99800000      1.00000000     14.00100000</v>
   <v name="DARWINR">      0.00000000      0.00000000      0.00000000      0.00000000</v>
   <v name="DARWINV">      1.00000000      1.00000000      1.00000000      1.00000000</v>
   <i type="logical" name="LCORR"> T  </i>
  </separator>
  <i type="logical" name="GGA_COMPAT"> T  </i>
  <i type="logical" name="LBERRY"> F  </i>
  <i type="int" name="ICORELEVEL">     0</i>
  <i type="logical" name="LDAU"> F  </i>
  <i type="int" name="I_CONSTRAINED_M">     0</i>
  <separator name="electronic exchange-correlation" >
   <i type="string" name="GGA">--</i>
   <i type="int" name="VOSKOWN">     0</i>
   <i type="logical" name="LHFCALC"> F  </i>
   <i type="string" name="PRECFOCK"></i>
   <i type="logical" name="LSYMGRAD"> F  </i>
   <i type="logical" name="LHFONE"> F  </i>
   <i type="logical" name="LRHFCALC"> F  </i>
   <i type="logical" name="LTHOMAS"> F  </i>
   <i type="logical" name="LMODELHF"> F  </i>
   <i type="logical" name="LFOCKACE"> F  </i>
   <i name="ENCUT4O">     -1.00000000</i>
   <i type="int" name="EXXOEP">     0</i>
   <i type="int" name="FOURORBIT">     0</i>
   <i name="AEXX">      0.00000000</i>
   <i name="HFALPHA">      0.00000000</i>
   <i name="MCALPHA">      0.00000000</i>
   <i name="ALDAX">      1.00000000</i>
   <i name="AGGAX">      1.00000000</i>
   <i name="ALDAC">      1.00000000</i>
   <i name="AGGAC">      1.00000000</i>
   <i type="int" name="NKREDX">     1</i>
   <i type="int" name="NKREDY">     1</i>
   <i type="int" name="NKREDZ">     1</i>
   <i type="logical" name="SHIFTRED"> F  </i>
   <i type="logical" name="ODDONLY"> F  </i>
   <i type="logical" name="EVENONLY"> F  </i>
   <i type="int" name="LMAXFOCK">     0</i>
   <i type="int" name="NMAXFOCKAE">     0</i>
   <i type="logical" name="LFOCKAEDFT"> F  </i>
   <i name="HFSCREEN">      0.00000000</i>
   <i name="HFSCREENC">      0.00000000</i>
   <i type="int" name="NBANDSGWLOW">     0</i>
  </separator>
  <separator name="vdW DFT" >
   <i type="logical" name="LUSE_VDW"> F  </i>
   <i type="int" name="IVDW_NL">     1</i>
   <i type="logical" name="LSPIN_VDW"> F  </i>
   <i name="Zab_VDW">     -0.84910000</i>
   <i name="PARAM1">      0.12340000</i>
   <i name="PARAM2">      1.00000000</i>
   <i name="PARAM3">      0.00000000</i>
  </separator>
  <separator name="model GW" >
   <i type="int" name="MODEL_GW">     0</i>
   <i name="MODEL_EPS0">     38.58035032</i>
   <i name="MODEL_ALPHA">      1.00000000</i>
  </separator>
  <separator name="linear response parameters" >
   <i type="logical" name="LEPSILON"> F  </i>
   <i type="logical" name="LRPA"> F  </i>
   <i type="logical" name="LNABLA"> F  </i>
   <i type="logical" name="LVEL"> F  </i>
   <i name="CSHIFT">      0.10000000</i>
   <i name="OMEGAMAX">     -1.00000000</i>
   <i name="DEG_THRESHOLD">      0.00200000</i>
   <i name="RTIME">     -0.10000000</i>
   <i name="WPLASMAI">      0.00000000</i>
   <v name="DFIELD">      0.00000000      0.00000000      0.00000000</v>
   <v name="WPLASMA">      0.00000000      0.00000000      0.00000000      0.00000000      0.00000000      0.00000000      0.00000000      0.00000000      0.00000000</v>
  </separator>
  <separator name="orbital magnetization" >
   <i type="logical" name="NUCIND"> F  </i>
   <v name="MAGPOS">      0.00000000      0.00000000      0.00000000</v>
   <i type="logical" name="LNICSALL"> T  </i>
   <i type="logical" name="ORBITALMAG"> F  </i>
   <i type="logical" name="LMAGBLOCH"> F  </i>
   <i type="logical" name="LCHIMAG"> F  </i>
   <i type="logical" name="LGAUGE"> T  </i>
   <i type="int" name="MAGATOM">     0</i>
   <v name="MAGDIPOL">      0.00000000      0.00000000      0.00000000</v>
   <v name="AVECCONST">      0.00000000      0.00000000      0.00000000</v>
  </separator>
  <separator name="response functions" >
   <i type="logical" name="LALL_IN_ONE"> F  </i>
   <i type="int" name="IALL_IN_ONE">    -1</i>
   <i type="int" name="NBANDS_WAVE">    -1</i>
   <i type="logical" name="LFINITE_TEMPERATURE"> F  </i>
   <i type="logical" name="LADDER"> F  </i>
   <i type="logical" name="LRPAFORCE"> F  </i>
   <i type="logical" name="LFXC"> F  </i>
   <i type="logical" name="LHARTREE"> T  </i>
   <i type="int" name="IBSE">     0</i>
   <v type="int" name="KPOINT">    -1     0     0     0</v>
   <i type="logical" name="LTCTC"> F  </i>
   <i type="logical" name="LTCTE"> F  </i>
   <i type="logical" name="LTETE"> F  </i>
   <i type="logical" name="LTRIPLET"> F  </i>
   <i type="logical" name="LFXCEPS"> F  </i>
   <i type="logical" name="LFXHEG"> F  </i>
   <i type="int" name="NATURALO">     2</i>
   <i type="logical" name="LHOLEGF"> F  </i>
   <i type="logical" name="L2ORDER"> F  </i>
   <i type="logical" name="LDMP1"> F  </i>
   <i type="logical" name="LMP2LT"> F  </i>
   <i type="logical" name="LSMP2LT"> F  </i>
   <i type="logical" name="LGWLF"> F  </i>
   <i name="ENCUTGW">     -1.60000002</i>
   <i name="ENCUTGWSOFT">     -1.60000002</i>
   <i name="ENCUTLF">     -1.00000000</i>
   <i type="logical" name="LESF_SPLINES"> F  </i>
   <i type="int" name="LMAXMP2">    -1</i>
   <i name="SCISSOR">      0.00000000</i>
   <i type="int" name="NOMEGA">     0</i>
   <i type="int" name="NOMEGAR">     0</i>
   <i type="int" name="NBANDSGW">    -1</i>
   <i type="int" name="NBANDSO">    -1</i>
   <i type="int" name="NBANDSV">    -1</i>
   <i type="int" name="NELMGW">     1</i>
   <i type="int" name="NELMHF">     1</i>
   <i type="int" name="DIM">     3</i>
   <i type="int" name="IESPILON">     4</i>
   <i type="int" name="ANTIRES">     0</i>
   <i name="OMEGAMAX">    -30.00000000</i>
   <i name="OMEGAMIN">    -30.00000000</i>
   <i name="OMEGATL">   -200.00000000</i>
   <i type="int" name="OMEGAGRID">     0</i>
   <i name="CSHIFT">     -0.10000000</i>
   <i type="logical" name="LSELFENERGY"> F  </i>
   <i type="logical" name="LSPECTRAL"> F  </i>
   <i type="logical" name="LSPECTRALGW"> F  </i>
   <i type="logical" name="LSINGLES"> F  </i>
   <i type="logical" name="LFERMIGW"> F  </i>
   <i type="logical" name="ODDONLYGW"> F  </i>
   <i type="logical" name="EVENONLYGW"> F  </i>
   <i type="int" name="NKREDLFX">     1</i>
   <i type="int" name="NKREDLFY">     1</i>
   <i type="int" name="NKREDLFZ">     1</i>
   <i type="int" name="MAXMEM">  2800</i>
   <i type="int" name="TELESCOPE">     0</i>
   <i type="int" name="NTAUPAR">    -1</i>
   <i type="int" name="NOMEGAPAR">    -1</i>
   <i name="DAMP_NEWTON">      0.80000001</i>
   <i name="LAMBDA">      1.00000000</i>
  </separator>
  <separator name="External order field" >
   <i name="OFIELD_KAPPA">      0.00000000</i>
   <v name="OFIELD_K">      0.00000000      0.00000000      0.00000000</v>
   <i name="OFIELD_Q6_NEAR">      0.00000000</i>
   <i name="OFIELD_Q6_FAR">      0.00000000</i>
   <i name="OFIELD_A">      0.00000000</i>
  </separator>
  <separator name="optional k-points parameters" >
   <i type="int" name="KPOINTS_OPT_MODE">     1</i>
   <i type="logical" name="LKPOINTS_OPT"> F  </i>
  </separator>
  <separator name="solvation model" >
   <i type="logical" name="LSOL"> F  </i>
  </separator>
 </parameters>
 <atominfo>
  <atoms>      16 </atoms>
  <types>       4 </types>
  <array name="atoms" >
   <dimension dim="1">ion</dimension>
   <field type="string">element</field>
   <field type="int">atomtype</field>
   <set>
    <rc><c>C </c><c>   1</c></rc>
    <rc><c>C </c><c>   1</c></rc>
    <rc><c>C </c><c>   1</c></rc>
    <rc><c>C </c><c>   1</c></rc>
    <rc><c>C </c><c>   1</c></rc>
    <rc><c>C </c><c>   1</c></rc>
    <rc><c>F </c><c>   2</c></rc>
    <rc><c>H </c><c>   3</c></rc>
    <rc><c>H </c><c>   3</c></rc>
    <rc><c>H </c><c>   3</c></rc>
    <rc><c>H </c><c>   3</c></rc>
    <rc><c>H </c><c>   3</c></rc>
    <rc><c>H </c><c>   3</c></rc>
    <rc><c>H </c><c>   3</c></rc>
    <rc><c>N </c><c>   4</c></rc>
    <rc><c>N </c><c>   4</c></rc>
   </set>
  </array>
  <array name="atomtypes" >
   <dimension dim="1">type</dimension>
   <field type="int">atomspertype</field>
   <field type="string">element</field>
   <field>mass</field>
   <field>valence</field>
   <field type="string">pseudopotential</field>
   <set>
    <rc><c>   6</c><c>C </c><c>     12.01100000</c><c>      4.00000000</c><c>  PAW_PBE C 08Apr2002                   </c></rc>
    <rc><c>   1</c><c>F </c><c>     18.99800000</c><c>      7.00000000</c><c>  PAW_PBE F 08Apr2002                   </c></rc>
    <rc><c>   7</c><c>H </c><c>      1.00000000</c><c>      1.00000000</c><c>  PAW_PBE H 15Jun2001                   </c></rc>
    <rc><c>   2</c><c>N </c><c>     14.00100000</c><c>      5.00000000</c><c>  PAW_PBE N 08Apr2002                   </c></rc>
   </set>
  </array>
 </atominfo>
 <structure name="initialpos" >
  <crystal>
   <varray name="basis" >
    <v>       7.75760000       0.00000000       0.00000000 </v>
    <v>       0.00000000      11.70620000       0.00000000 </v>
    <v>       0.00000000       0.00000000      11.32900000 </v>
   </varray>
   <i name="volume">   1028.80934195 </i>
   <varray name="rec_basis" >
    <v>       0.12890585       0.00000000       0.00000000 </v>
    <v>       0.00000000       0.08542482       0.00000000 </v>
    <v>       0.00000000       0.00000000       0.08826904 </v>
   </varray>
  </crystal>
  <varray name="positions" >
   <v>       0.49996133       0.70872700       0.54288993 </v>
   <v>       0.49957461       0.58023099       0.54553800 </v>
   <v>       0.49912344       0.51803318       0.44205137 </v>
   <v>       0.49907188       0.39819924       0.44194545 </v>
   <v>       0.50067031       0.39829321       0.64379910 </v>
   <v>       0.49965195       0.51653824       0.65040162 </v>
   <v>       0.50015469       0.57222668       0.33686115 </v>
   <v>       0.61328246       0.74144470       0.49621326 </v>
   <v>       0.38671754       0.74170952       0.49633683 </v>
   <v>       0.50018047       0.74372555       0.63222703 </v>
   <v>       0.53421161       0.38003793       0.26480713 </v>
   <v>       0.52811437       0.25627445       0.34379910 </v>
   <v>       0.50183046       0.34736294       0.72403566 </v>
   <v>       0.49988398       0.55946422       0.73519287 </v>
   <v>       0.49133753       0.33866669       0.33706417 </v>
   <v>       0.50092812       0.33926466       0.54270456 </v>
  </varray>
 </structure>
 <calculation>
  <scstep>
   <time name="diag">    0.14    0.36</time>
   <time name="diis">    0.18    0.18</time>
   <time name="orth">    0.01    0.01</time>
   <time name="total">    0.51    0.79</time>
   <energy>
    <i name="alphaZ">      9.72596956 </i>
    <i name="ewald">   1916.89714348 </i>
    <i name="hartreedc">  -3547.42961657 </i>
    <i name="XCdc">    171.54299614 </i>
    <i name="pawpsdc">   1615.14374411 </i>
    <i name="pawaedc">  -1626.10587105 </i>
    <i name="eentropy">     -0.00020772 </i>
    <i name="bandstr">     95.83625709 </i>
    <i name="atom">   2158.97731088 </i>
    <i name="e_fr_energy">    794.58772593 </i>
    <i name="e_wo_entrp">    794.58793365 </i>
    <i name="e_0_energy">    794.58782979 </i>
   </energy>
  </scstep>
  <scstep>
   <time name="diag">    0.06    0.07</time>
   <time name="diis">    0.17    0.18</time>
   <time name="orth">    0.01    0.01</time>
   <time name="total">    0.24    0.25</time>
   <energy>
    <i name="e_fr_energy">    401.14927966 </i>
    <i name="e_wo_entrp">    401.14927966 </i>
    <i name="e_0_energy">    401.14927966 </i>
   </energy>
  </scstep>
  <scstep>
   <time name="diag">    0.08    0.08</time>
   <time name="diis">    0.17    0.17</time>
   <time name="orth">    0.01    0.01</time>
   <time name="total">    0.25    0.25</time>
   <energy>
    <i name="e_fr_energy">    237.85345884 </i>
    <i name="e_wo_entrp">    237.97966579 </i>
    <i name="e_0_energy">    237.91656231 </i>
   </energy>
  </scstep>
  <scstep>
   <time name="diag">    0.08    0.08</time>
   <time name="diis">    0.17    0.17</time>
   <time name="orth">    0.01    0.01</time>
   <time name="total">    0.25    0.26</time>
   <energy>
    <i name="e_fr_energy">     75.98736092 </i>
    <i name="e_wo_entrp">     76.05474757 </i>
    <i name="e_0_energy">     76.02105424 </i>
   </energy>
  </scstep>
  <scstep>
   <time name="diag">    0.08    0.08</time>
   <time name="diis">    0.17    0.17</time>
   <time name="orth">    0.00    0.00</time>
   <time name="total">    0.25    0.25</time>
   <energy>
    <i name="e_fr_energy">    -14.14259468 </i>
    <i name="e_wo_entrp">    -14.03708605 </i>
    <i name="e_0_energy">    -14.08984037 </i>
   </energy>
  </scstep>
  <scstep>
   <time name="diag">    0.08    0.08</time>
   <time name="diis">    0.16    0.17</time>
   <time name="orth">    0.00    0.01</time>
   <time name="total">    0.25    0.25</time>
   <energy>
    <i name="e_fr_energy">    -72.23952839 </i>
    <i name="e_wo_entrp">    -72.23952838 </i>
    <i name="e_0_energy">    -72.23952839 </i>
   </energy>
  </scstep>
  <scstep>
   <time name="diag">    0.08    0.08</time>
   <time name="diis">    0.17    0.17</time>
   <time name="orth">    0.00    0.00</time>
   <time name="total">    0.25    0.26</time>
   <energy>
    <i name="e_fr_energy">    -98.88475316 </i>
    <i name="e_wo_entrp">    -98.88475316 </i>
    <i name="e_0_energy">    -98.88475316 </i>
   </energy>
  </scstep>
  <scstep>
   <time name="diag">    0.07    0.07</time>
   <time name="diis">    0.17    0.17</time>
   <time name="orth">    0.00    0.00</time>
   <time name="total">    0.25    0.25</time>
   <energy>
    <i name="e_fr_energy">   -107.08810426 </i>
    <i name="e_wo_entrp">   -107.08810426 </i>
    <i name="e_0_energy">   -107.08810426 </i>
   </energy>
  </scstep>
  <scstep>
   <time name="diag">    0.07    0.07</time>
   <time name="diis">    0.18    0.18</time>
   <time name="orth">    0.00    0.00</time>
   <time name="total">    0.25    0.25</time>
   <energy>
    <i name="e_fr_energy">   -109.36509386 </i>
    <i name="e_wo_entrp">   -109.36509386 </i>
    <i name="e_0_energy">   -109.36509386 </i>
   </energy>
  </scstep>
  <scstep>
   <time name="diag">    0.08    0.08</time>
   <time name="diis">    0.18    0.18</time>
   <time name="orth">    0.00    0.05</time>
   <time name="total">    0.26    0.31</time>
   <energy>
    <i name="e_fr_energy">   -110.07615307 </i>
    <i name="e_wo_entrp">   -110.07615307 </i>
    <i name="e_0_energy">   -110.07615307 </i>
   </energy>
  </scstep>
  <scstep>
   <time name="diag">    0.08    0.08</time>
   <time name="diis">    0.17    0.18</time>
   <time name="orth">    0.00    0.00</time>
   <time name="total">    0.25    0.26</time>
   <energy>
    <i name="e_fr_energy">   -110.29895814 </i>
    <i name="e_wo_entrp">   -110.29895814 </i>
    <i name="e_0_energy">   -110.29895814 </i>
   </energy>
  </scstep>
  <scstep>
   <time name="diag">    0.07    0.08</time>
   <time name="diis">    0.17    0.17</time>
   <time name="orth">    0.01    0.01</time>
   <time name="total">    0.25    0.25</time>
   <energy>
    <i name="e_fr_energy">   -110.38065086 </i>
    <i name="e_wo_entrp">   -110.38065086 </i>
    <i name="e_0_energy">   -110.38065086 </i>
   </energy>
  </scstep>
  <scstep>
   <time name="diag">    0.08    0.08</time>
   <time name="diis">    0.17    0.17</time>
   <time name="orth">    0.01    0.01</time>
   <time name="total">    0.25    0.26</time>
   <energy>
    <i name="e_fr_energy">   -110.41012773 </i>
    <i name="e_wo_entrp">   -110.41012773 </i>
    <i name="e_0_energy">   -110.41012773 </i>
   </energy>
  </scstep>
  <scstep>
   <time name="diag">    0.08    0.08</time>
   <time name="diis">    0.17    0.17</time>
   <time name="orth">    0.01    0.01</time>
   <time name="total">    0.25    0.26</time>
   <energy>
    <i name="e_fr_energy">   -110.42251892 </i>
    <i name="e_wo_entrp">   -110.42251892 </i>
    <i name="e_0_energy">   -110.42251892 </i>
   </energy>
  </scstep>
  <scstep>
   <time name="diag">    0.08    0.08</time>
   <time name="diis">    0.31    0.33</time>
   <time name="orth">    0.00    0.00</time>
   <time name="total">    0.40    0.42</time>
   <energy>
    <i name="e_fr_energy">   -110.42974732 </i>
    <i name="e_wo_entrp">   -110.42974732 </i>
    <i name="e_0_energy">   -110.42974732 </i>
   </energy>
  </scstep>
  <scstep>
   <time name="diag">    0.07    0.07</time>
   <time name="diis">    0.32    0.33</time>
   <time name="orth">    0.00    0.00</time>
   <time name="total">    0.40    0.41</time>
   <energy>
    <i name="e_fr_energy">   -110.43067269 </i>
    <i name="e_wo_entrp">   -110.43067269 </i>
    <i name="e_0_energy">   -110.43067269 </i>
   </energy>
  </scstep>
  <scstep>
   <time name="diag">    0.07    0.08</time>
   <time name="diis">    0.31    0.31</time>
   <time name="orth">    0.01    0.01</time>
   <time name="total">    0.39    0.39</time>
   <energy>
    <i name="e_fr_energy">   -110.43083797 </i>
    <i name="e_wo_entrp">   -110.43083797 </i>
    <i name="e_0_energy">   -110.43083797 </i>
   </energy>
  </scstep>
  <scstep>
   <time name="diag">    0.08    0.08</time>
   <time name="diis">    0.26    0.26</time>
   <time name="orth">    0.01    0.01</time>
   <time name="total">    0.34    0.35</time>
   <energy>
    <i name="e_fr_energy">   -110.43084853 </i>
    <i name="e_wo_entrp">   -110.43084853 </i>
    <i name="e_0_energy">   -110.43084853 </i>
   </energy>
  </scstep>
  <scstep>
   <time name="diag">    0.08    0.08</time>
   <time name="diis">    0.20    0.21</time>
   <time name="orth">    0.00    0.00</time>
   <time name="total">    0.28    0.29</time>
   <energy>
    <i name="e_fr_energy">   -110.43084931 </i>
    <i name="e_wo_entrp">   -110.43084931 </i>
    <i name="e_0_energy">   -110.43084931 </i>
   </energy>
  </scstep>
  <scstep>
   <time name="diag">    0.08    0.08</time>
   <time name="diis">    0.21    0.21</time>
   <time name="orth">    0.00    0.00</time>
   <time name="total">    0.33    0.35</time>
   <energy>
    <i name="e_fr_energy">   -110.43084952 </i>
    <i name="e_wo_entrp">   -110.43084952 </i>
    <i name="e_0_energy">   -110.43084952 </i>
   </energy>
  </scstep>
  <scstep>
   <time name="diag">    0.08    0.08</time>
   <time name="diis">    0.43    0.44</time>
   <time name="orth">    0.01    0.01</time>
   <time name="total">    0.78    0.80</time>
   <energy>
    <i name="e_fr_energy">   -102.57089355 </i>
    <i name="e_wo_entrp">   -102.57089355 </i>
    <i name="e_0_energy">   -102.57089355 </i>
   </energy>
  </scstep>
  <scstep>
   <time name="diag">    0.08    0.09</time>
   <time name="diis">    0.47    0.47</time>
   <time name="orth">    0.00    0.00</time>
   <time name="total">    0.80    0.81</time>
   <energy>
    <i name="e_fr_energy">   -100.86602540 </i>
    <i name="e_wo_entrp">   -100.86602540 </i>
    <i name="e_0_energy">   -100.86602540 </i>
   </energy>
  </scstep>
  <scstep>
   <time name="diag">    0.07    0.07</time>
   <time name="diis">    0.50    0.51</time>
   <time name="orth">    0.01    0.01</time>
   <time name="total">    0.80    0.81</time>
   <energy>
    <i name="e_fr_energy">   -100.55762407 </i>
    <i name="e_wo_entrp">   -100.55762407 </i>
    <i name="e_0_energy">   -100.55762407 </i>
   </energy>
  </scstep>
  <scstep>
   <time name="diag">    0.07    0.07</time>
   <time name="diis">    0.48    0.49</time>
   <time name="orth">    0.01    0.01</time>
   <time name="total">    0.80    0.81</time>
   <energy>
    <i name="e_fr_energy">   -100.52647132 </i>
    <i name="e_wo_entrp">   -100.52647132 </i>
    <i name="e_0_energy">   -100.52647132 </i>
   </energy>
  </scstep>
  <scstep>
   <time name="diag">    0.07    0.07</time>
   <time name="diis">    0.38    0.39</time>
   <time name="orth">    0.00    0.00</time>
   <time name="total">    0.68    0.69</time>
   <energy>
    <i name="e_fr_energy">   -100.52004315 </i>
    <i name="e_wo_entrp">   -100.52004315 </i>
    <i name="e_0_energy">   -100.52004315 </i>
   </energy>
  </scstep>
  <scstep>
   <time name="diag">    0.07    0.07</time>
   <time name="diis">    0.37    0.37</time>
   <time name="orth">    0.00    0.00</time>
   <time name="total">    0.70    0.71</time>
   <energy>
    <i name="e_fr_energy">   -100.51916691 </i>
    <i name="e_wo_entrp">   -100.51916691 </i>
    <i name="e_0_energy">   -100.51916691 </i>
   </energy>
  </scstep>
  <scstep>
   <time name="diag">    0.06    0.06</time>
   <time name="diis">    0.30    0.30</time>
   <time name="orth">    0.01    0.01</time>
   <time name="total">    0.62    0.63</time>
   <energy>
    <i name="e_fr_energy">   -100.52389410 </i>
    <i name="e_wo_entrp">   -100.52389410 </i>
    <i name="e_0_energy">   -100.52389410 </i>
   </energy>
  </scstep>
  <scstep>
   <time name="diag">    0.08    0.08</time>
   <time name="diis">    0.28    0.28</time>
   <time name="orth">    0.00    0.00</time>
   <time name="total">    0.60    0.61</time>
   <energy>
    <i name="e_fr_energy">   -100.53077782 </i>
    <i name="e_wo_entrp">   -100.53077782 </i>
    <i name="e_0_energy">   -100.53077782 </i>
   </energy>
  </scstep>
  <scstep>
   <time name="diag">    0.08    0.08</time>
   <time name="diis">    0.28    0.29</time>
   <time name="orth">    0.01    0.01</time>
   <time name="total">    0.60    0.61</time>
   <energy>
    <i name="e_fr_energy">   -100.53521236 </i>
    <i name="e_wo_entrp">   -100.53521236 </i>
    <i name="e_0_energy">   -100.53521236 </i>
   </energy>
  </scstep>
  <scstep>
   <time name="diag">    0.07    0.07</time>
   <time name="diis">    0.30    0.31</time>
   <time name="orth">    0.01    0.01</time>
   <time name="total">    0.61    0.62</time>
   <energy>
    <i name="e_fr_energy">   -100.53827988 </i>
    <i name="e_wo_entrp">   -100.53827988 </i>
    <i name="e_0_energy">   -100.53827988 </i>
   </energy>
  </scstep>
  <scstep>
   <time name="diag">    0.07    0.07</time>
   <time name="diis">    0.25    0.26</time>
   <time name="orth">    0.01    0.01</time>
   <time name="total">    0.56    0.56</time>
   <energy>
    <i name="e_fr_energy">   -100.53897085 </i>
    <i name="e_wo_entrp">   -100.53897085 </i>
    <i name="e_0_energy">   -100.53897085 </i>
   </energy>
  </scstep>
  <scstep>
   <time name="diag">    0.05    0.05</time>
   <time name="diis">    0.24    0.25</time>
   <time name="orth">    0.01    0.01</time>
   <time name="total">    0.54    0.55</time>
   <energy>
    <i name="e_fr_energy">   -100.53922313 </i>
    <i name="e_wo_entrp">   -100.53922313 </i>
    <i name="e_0_energy">   -100.53922313 </i>
   </energy>
  </scstep>
  <scstep>
   <time name="diag">    0.07    0.07</time>
   <time name="diis">    0.17    0.18</time>
   <time name="orth">    0.01    0.01</time>
   <time name="total">    0.51    0.52</time>
   <energy>
    <i name="e_fr_energy">   -100.53928063 </i>
    <i name="e_wo_entrp">   -100.53928063 </i>
    <i name="e_0_energy">   -100.53928063 </i>
   </energy>
  </scstep>
  <scstep>
   <time name="diag">    0.08    0.08</time>
   <time name="diis">    0.18    0.18</time>
   <time name="orth">    0.01    0.01</time>
   <time name="total">    0.51    0.51</time>
   <energy>
    <i name="e_fr_energy">   -100.53933793 </i>
    <i name="e_wo_entrp">   -100.53933793 </i>
    <i name="e_0_energy">   -100.53933793 </i>
   </energy>
  </scstep>
  <scstep>
   <time name="diag">    0.08    0.09</time>
   <time name="diis">    0.19    0.19</time>
   <time name="orth">    0.00    0.00</time>
   <time name="total">    0.51    0.52</time>
   <energy>
    <i name="e_fr_energy">   -100.53934799 </i>
    <i name="e_wo_entrp">   -100.53934799 </i>
    <i name="e_0_energy">   -100.53934799 </i>
   </energy>
  </scstep>
  <scstep>
   <time name="diag">    0.07    0.08</time>
   <time name="diis">    0.18    0.18</time>
   <time name="orth">    0.01    0.01</time>
   <time name="total">    0.46    0.46</time>
   <energy>
    <i name="alphaZ">      9.72596956 </i>
    <i name="ewald">   1916.89714348 </i>
    <i name="hartreedc">  -3743.15629132 </i>
    <i name="XCdc">    180.66365268 </i>
    <i name="pawpsdc">   4351.44463402 </i>
    <i name="pawaedc">  -4363.88581951 </i>
    <i name="eentropy">     -0.00000000 </i>
    <i name="bandstr">   -611.20595147 </i>
    <i name="atom">   2158.97731088 </i>
    <i name="e_fr_energy">   -100.53935169 </i>
    <i name="e_wo_entrp">   -100.53935169 </i>
    <i name="e_0_energy">   -100.53935169 </i>
   </energy>
  </scstep>
  <structure>
   <crystal>
    <varray name="basis" >
     <v>       7.75760000       0.00000000       0.00000000 </v>
     <v>       0.00000000      11.70620000       0.00000000 </v>
     <v>       0.00000000       0.00000000      11.32900000 </v>
    </varray>
    <i name="volume">   1028.80934195 </i>
    <varray name="rec_basis" >
     <v>       0.12890585       0.00000000       0.00000000 </v>
     <v>       0.00000000       0.08542482       0.00000000 </v>
     <v>       0.00000000       0.00000000       0.08826904 </v>
    </varray>
   </crystal>
   <varray name="positions" >
    <v>       0.49996133       0.70872700       0.54288993 </v>
    <v>       0.49957461       0.58023099       0.54553800 </v>
    <v>       0.49912344       0.51803318       0.44205137 </v>
    <v>       0.49907188       0.39819924       0.44194545 </v>
    <v>       0.50067031       0.39829321       0.64379910 </v>
    <v>       0.49965195       0.51653824       0.65040162 </v>
    <v>       0.50015469       0.57222668       0.33686115 </v>
    <v>       0.61328246       0.74144470       0.49621326 </v>
    <v>       0.38671754       0.74170952       0.49633683 </v>
    <v>       0.50018047       0.74372555       0.63222703 </v>
    <v>       0.53421161       0.38003793       0.26480713 </v>
    <v>       0.52811437       0.25627445       0.34379910 </v>
    <v>       0.50183046       0.34736294       0.72403566 </v>
    <v>       0.49988398       0.55946422       0.73519287 </v>
    <v>       0.49133753       0.33866669       0.33706417 </v>
    <v>       0.50092812       0.33926466       0.54270456 </v>
   </varray>
  </structure>
  <varray name="forces" >
   <v>      -0.00008303      -0.17939048       0.03160596 </v>
   <v>      -0.00558865       0.34404482       0.04137067 </v>
   <v>      -0.01195556      -0.33896709       0.67834950 </v>
   <v>      -0.00248502      -0.08485701      -0.23942465 </v>
   <v>       0.00027033      -0.04792183       0.08791662 </v>
   <v>       0.00606467       0.03139585      -0.05747190 </v>
   <v>       0.00531727       0.49094570      -0.88235752 </v>
   <v>       0.11705893       0.04748154      -0.07279078 </v>
   <v>      -0.11984307       0.04965905      -0.07322312 </v>
   <v>      -0.00076886       0.04328801       0.14898461 </v>
   <v>       0.04880021       0.10666778      -0.25405914 </v>
   <v>       0.04260535      -0.27791819       0.01643255 </v>
   <v>       0.00383572      -0.12421532       0.18595624 </v>
   <v>      -0.00288289       0.10639114       0.20052994 </v>
   <v>      -0.07152079       0.06633411       0.11489929 </v>
   <v>      -0.00882460      -0.23293808       0.07328173 </v>
  </varray>
  <varray name="stress" >
   <v>       0.08082197      -0.06766149      -0.13254492 </v>
   <v>      -0.06766149       2.70533500      -0.81803672 </v>
   <v>      -0.13254492      -0.81803671       4.59526381 </v>
  </varray>
  <energy>
   <i name="e_fr_energy">   -100.53935169 </i>
   <i name="e_wo_entrp">   -100.53935169 </i>
   <i name="e_0_energy">   -100.53935169 </i>
  </energy>
  <time name="totalsc">   17.07   17.82</time>
 </calculation>
 <calculation>
  <scstep>
   <time name="diag">    0.08    0.08</time>
   <time name="diis">    0.25    0.26</time>
   <time name="orth">    0.01    0.01</time>
   <time name="total">    0.58    0.59</time>
   <energy>
    <i name="alphaZ">      9.72596956 </i>
    <i name="ewald">   1903.10028178 </i>
    <i name="hartreedc">  -3732.07611591 </i>
    <i name="XCdc">    180.53536036 </i>
    <i name="pawpsdc">   4351.42873416 </i>
    <i name="pawaedc">  -4363.86990985 </i>
    <i name="eentropy">     -0.00000000 </i>
    <i name="bandstr">   -608.36293280 </i>
    <i name="atom">   2158.97731088 </i>
    <i name="e_fr_energy">   -100.54130181 </i>
    <i name="e_wo_entrp">   -100.54130181 </i>
    <i name="e_0_energy">   -100.54130181 </i>
   </energy>
  </scstep>
  <scstep>
   <time name="diag">    0.07    0.08</time>
   <time name="diis">    0.23    0.23</time>
   <time name="orth">    0.00    0.00</time>
   <time name="total">    0.55    0.56</time>
   <energy>
    <i name="e_fr_energy">   -100.55310379 </i>
    <i name="e_wo_entrp">   -100.55310379 </i>
    <i name="e_0_energy">   -100.55310379 </i>
   </energy>
  </scstep>
  <scstep>
   <time name="diag">    0.06    0.06</time>
   <time name="diis">    0.23    0.23</time>
   <time name="orth">    0.01    0.01</time>
   <time name="total">    0.49    0.50</time>
   <energy>
    <i name="e_fr_energy">   -100.55479322 </i>
    <i name="e_wo_entrp">   -100.55479322 </i>
    <i name="e_0_energy">   -100.55479322 </i>
   </energy>
  </scstep>
  <scstep>
   <time name="diag">    0.05    0.05</time>
   <time name="diis">    0.27    0.27</time>
   <time name="orth">    0.00    0.00</time>
   <time name="total">    0.51    0.52</time>
   <energy>
    <i name="e_fr_energy">   -100.55437263 </i>
    <i name="e_wo_entrp">   -100.55437263 </i>
    <i name="e_0_energy">   -100.55437263 </i>
   </energy>
  </scstep>
  <scstep>
   <time name="diag">    0.07    0.07</time>
   <time name="diis">    0.26    0.26</time>
   <time name="orth">    0.00    0.00</time>
   <time name="total">    0.58    0.59</time>
   <energy>
    <i name="e_fr_energy">   -100.55435265 </i>
    <i name="e_wo_entrp">   -100.55435265 </i>
    <i name="e_0_energy">   -100.55435265 </i>
   </energy>
  </scstep>
  <scstep>
   <time name="diag">    0.07    0.07</time>
   <time name="diis">    0.25    0.26</time>
   <time name="orth">    0.01    0.01</time>
   <time name="total">    0.59    0.60</time>
   <energy>
    <i name="e_fr_energy">   -100.55441142 </i>
    <i name="e_wo_entrp">   -100.55441142 </i>
    <i name="e_0_energy">   -100.55441142 </i>
   </energy>
  </scstep>
  <scstep>
   <time name="diag">    0.07    0.07</time>
   <time name="diis">    0.24    0.25</time>
   <time name="orth">    0.00    0.00</time>
   <time name="total">    0.59    0.62</time>
   <energy>
    <i name="e_fr_energy">   -100.55444188 </i>
    <i name="e_wo_entrp">   -100.55444188 </i>
    <i name="e_0_energy">   -100.55444188 </i>
   </energy>
  </scstep>
  <scstep>
   <time name="diag">    0.08    0.08</time>
   <time name="diis">    0.22    0.23</time>
   <time name="orth">    0.00    0.00</time>
   <time name="total">    0.55    0.56</time>
   <energy>
    <i name="e_fr_energy">   -100.55451198 </i>
    <i name="e_wo_entrp">   -100.55451198 </i>
    <i name="e_0_energy">   -100.55451198 </i>
   </energy>
  </scstep>
  <scstep>
   <time name="diag">    0.08    0.08</time>
   <time name="diis">    0.21    0.21</time>
   <time name="orth">    0.00    0.00</time>
   <time name="total">    0.54    0.55</time>
   <energy>
    <i name="e_fr_energy">   -100.55455935 </i>
    <i name="e_wo_entrp">   -100.55455935 </i>
    <i name="e_0_energy">   -100.55455935 </i>
   </energy>
  </scstep>
  <scstep>
   <time name="diag">    0.07    0.07</time>
   <time name="diis">    0.22    0.22</time>
   <time name="orth">    0.01    0.01</time>
   <time name="total">    0.54    0.55</time>
   <energy>
    <i name="e_fr_energy">   -100.55462649 </i>
    <i name="e_wo_entrp">   -100.55462649 </i>
    <i name="e_0_energy">   -100.55462649 </i>
   </energy>
  </scstep>
  <scstep>
   <time name="diag">    0.04    0.04</time>
   <time name="diis">    0.19    0.20</time>
   <time name="orth">    0.00    0.00</time>
   <time name="total">    0.47    0.48</time>
   <energy>
    <i name="e_fr_energy">   -100.55466139 </i>
    <i name="e_wo_entrp">   -100.55466139 </i>
    <i name="e_0_energy">   -100.55466139 </i>
   </energy>
  </scstep>
  <scstep>
   <time name="diag">    0.05    0.05</time>
   <time name="diis">    0.15    0.16</time>
   <time name="orth">    0.01    0.01</time>
   <time name="total">    0.48    0.49</time>
   <energy>
    <i name="e_fr_energy">   -100.55467468 </i>
    <i name="e_wo_entrp">   -100.55467468 </i>
    <i name="e_0_energy">   -100.55467468 </i>
   </energy>
  </scstep>
  <scstep>
   <time name="diag">    0.08    0.08</time>
   <time name="diis">    0.17    0.17</time>
   <time name="orth">    0.00    0.00</time>
   <time name="total">    0.45    0.46</time>
   <energy>
    <i name="alphaZ">      9.72596956 </i>
    <i name="ewald">   1903.10028178 </i>
    <i name="hartreedc">  -3730.86655576 </i>
    <i name="XCdc">    180.45856252 </i>
    <i name="pawpsdc">   4322.96093546 </i>
    <i name="pawaedc">  -4335.36597901 </i>
    <i name="eentropy">     -0.00000000 </i>
    <i name="bandstr">   -609.54520999 </i>
    <i name="atom">   2158.97731088 </i>
    <i name="e_fr_energy">   -100.55468455 </i>
    <i name="e_wo_entrp">   -100.55468455 </i>
    <i name="e_0_energy">   -100.55468455 </i>
   </energy>
  </scstep>
  <structure>
   <crystal>
    <varray name="basis" >
     <v>       7.75760000       0.00000000       0.00000000 </v>
     <v>       0.00000000      11.70620000       0.00000000 </v>
     <v>       0.00000000       0.00000000      11.32900000 </v>
    </varray>
    <i name="volume">   1028.80934195 </i>
    <varray name="rec_basis" >
     <v>       0.12890585       0.00000000       0.00000000 </v>
     <v>       0.00000000       0.08542482       0.00000000 </v>
     <v>       0.00000000       0.00000000       0.08826904 </v>
    </varray>
   </crystal>
   <varray name="positions" >
    <v>       0.49996112       0.70843128       0.54294376 </v>
    <v>       0.49956071       0.58079813       0.54560847 </v>
    <v>       0.49909370       0.51747441       0.44320683 </v>
    <v>       0.49906570       0.39805936       0.44153763 </v>
    <v>       0.50067098       0.39821422       0.64394885 </v>
    <v>       0.49966704       0.51659000       0.65030373 </v>
    <v>       0.50016791       0.57303598       0.33535820 </v>
    <v>       0.61357364       0.74152298       0.49608927 </v>
    <v>       0.38641943       0.74179138       0.49621211 </v>
    <v>       0.50017856       0.74379691       0.63248080 </v>
    <v>       0.53433300       0.38021376       0.26437438 </v>
    <v>       0.52822035       0.25581632       0.34382709 </v>
    <v>       0.50184000       0.34715817       0.72435241 </v>
    <v>       0.49987681       0.55963960       0.73553444 </v>
    <v>       0.49115962       0.33877604       0.33725988 </v>
    <v>       0.50090617       0.33888068       0.54282939 </v>
   </varray>
  </structure>
  <varray name="forces" >
   <v>      -0.00204466       0.20471444      -0.00529881 </v>
   <v>      -0.00370213      -0.02526817       0.18236649 </v>
   <v>       0.00277054       0.29030609      -0.50255070 </v>
   <v>       0.00380709      -0.16583604       0.22621620 </v>
   <v>       0.00201496      -0.08520358       0.00144870 </v>
   <v>       0.00200314       0.12068360       0.15115459 </v>
   <v>      -0.00810508       0.01540929       0.07986745 </v>
   <v>       0.00900909      -0.01053459      -0.01493273 </v>
   <v>      -0.01022635      -0.00893996      -0.01460749 </v>
   <v>      -0.00092287      -0.00995461       0.04221401 </v>
   <v>      -0.06137857      -0.01899912      -0.00468500 </v>
   <v>      -0.04629178       0.00223895       0.01072689 </v>
   <v>       0.00292295      -0.06783907       0.11817803 </v>
   <v>      -0.00245307       0.02567021       0.05508477 </v>
   <v>       0.11898079      -0.16956333      -0.31679343 </v>
   <v>      -0.00638405      -0.09688411      -0.00838897 </v>
  </varray>
  <varray name="stress" >
   <v>      -0.31023863      -0.00929434       0.01729793 </v>
   <v>      -0.00929435       1.70505824       0.53630515 </v>
   <v>       0.01729794       0.53630516       2.02091272 </v>
  </varray>
  <energy>
   <i name="e_fr_energy">   -100.55468455 </i>
   <i name="e_wo_entrp">   -100.55468455 </i>
   <i name="e_0_energy">   -100.55468455 </i>
  </energy>
  <time name="totalsc">    8.01    8.24</time>
 </calculation>
 <calculation>
  <scstep>
   <time name="diag">    0.07    0.07</time>
   <time name="diis">    0.27    0.28</time>
   <time name="orth">    0.00    0.00</time>
   <time name="total">    0.57    0.58</time>
   <energy>
    <i name="alphaZ">      9.72596956 </i>
    <i name="ewald">   1906.05631261 </i>
    <i name="hartreedc">  -3733.24942565 </i>
    <i name="XCdc">    180.48559020 </i>
    <i name="pawpsdc">   4322.96934234 </i>
    <i name="pawaedc">  -4335.37438636 </i>
    <i name="eentropy">     -0.00000000 </i>
    <i name="bandstr">   -610.14589107 </i>
    <i name="atom">   2158.97731088 </i>
    <i name="e_fr_energy">   -100.55517749 </i>
    <i name="e_wo_entrp">   -100.55517749 </i>
    <i name="e_0_energy">   -100.55517749 </i>
   </energy>
  </scstep>
  <scstep>
   <time name="diag">    0.07    0.07</time>
   <time name="diis">    0.28    0.28</time>
   <time name="orth">    0.00    0.00</time>
   <time name="total">    0.57    0.58</time>
   <energy>
    <i name="e_fr_energy">   -100.55578526 </i>
    <i name="e_wo_entrp">   -100.55578526 </i>
    <i name="e_0_energy">   -100.55578526 </i>
   </energy>
  </scstep>
  <scstep>
   <time name="diag">    0.07    0.07</time>
   <time name="diis">    0.26    0.27</time>
   <time name="orth">    0.00    0.00</time>
   <time name="total">    0.56    0.57</time>
   <energy>
    <i name="e_fr_energy">   -100.55587029 </i>
    <i name="e_wo_entrp">   -100.55587029 </i>
    <i name="e_0_energy">   -100.55587029 </i>
   </energy>
  </scstep>
  <scstep>
   <time name="diag">    0.08    0.08</time>
   <time name="diis">    0.27    0.27</time>
   <time name="orth">    0.00    0.00</time>
   <time name="total">    0.58    0.59</time>
   <energy>
    <i name="e_fr_energy">   -100.55585644 </i>
    <i name="e_wo_entrp">   -100.55585644 </i>
    <i name="e_0_energy">   -100.55585644 </i>
   </energy>
  </scstep>
  <scstep>
   <time name="diag">    0.07    0.07</time>
   <time name="diis">    0.21    0.22</time>
   <time name="orth">    0.01    0.01</time>
   <time name="total">    0.50    0.51</time>
   <energy>
    <i name="e_fr_energy">   -100.55585342 </i>
    <i name="e_wo_entrp">   -100.55585342 </i>
    <i name="e_0_energy">   -100.55585342 </i>
   </energy>
  </scstep>
  <scstep>
   <time name="diag">    0.03    0.03</time>
   <time name="diis">    0.17    0.17</time>
   <time name="orth">    0.00    0.00</time>
   <time name="total">    0.35    0.35</time>
   <energy>
    <i name="alphaZ">      9.72596956 </i>
    <i name="ewald">   1906.05631261 </i>
    <i name="hartreedc">  -3733.50709226 </i>
    <i name="XCdc">    180.50208124 </i>
    <i name="pawpsdc">   4328.81301378 </i>
    <i name="pawaedc">  -4341.22571122 </i>
    <i name="eentropy">     -0.00000000 </i>
    <i name="bandstr">   -609.89773878 </i>
    <i name="atom">   2158.97731088 </i>
    <i name="e_fr_energy">   -100.55585418 </i>
    <i name="e_wo_entrp">   -100.55585418 </i>
    <i name="e_0_energy">   -100.55585418 </i>
   </energy>
  </scstep>
  <structure>
   <crystal>
    <varray name="basis" >
     <v>       7.75760000       0.00000000       0.00000000 </v>
     <v>       0.00000000      11.70620000       0.00000000 </v>
     <v>       0.00000000       0.00000000      11.32900000 </v>
    </varray>
    <i name="volume">   1028.80934195 </i>
    <varray name="rec_basis" >
     <v>       0.12890585       0.00000000       0.00000000 </v>
     <v>       0.00000000       0.08542482       0.00000000 </v>
     <v>       0.00000000       0.00000000       0.08826904 </v>
    </varray>
   </crystal>
   <varray name="positions" >
    <v>       0.49996117       0.70849543       0.54293209 </v>
    <v>       0.49956372       0.58067511       0.54559318 </v>
    <v>       0.49910015       0.51759561       0.44295620 </v>
    <v>       0.49906704       0.39808970       0.44162609 </v>
    <v>       0.50067084       0.39823135       0.64391637 </v>
    <v>       0.49966377       0.51657877       0.65032496 </v>
    <v>       0.50016504       0.57286044       0.33568420 </v>
    <v>       0.61351048       0.74150600       0.49611616 </v>
    <v>       0.38648409       0.74177363       0.49623916 </v>
    <v>       0.50017897       0.74378143       0.63242575 </v>
    <v>       0.53430667       0.38017563       0.26446825 </v>
    <v>       0.52819736       0.25591569       0.34382102 </v>
    <v>       0.50183793       0.34720259       0.72428370 </v>
    <v>       0.49987837       0.55960155       0.73546035 </v>
    <v>       0.49119821       0.33875232       0.33721743 </v>
    <v>       0.50091093       0.33896397       0.54280231 </v>
   </varray>
  </structure>
  <varray name="forces" >
   <v>      -0.00258010       0.12326424       0.00047418 </v>
   <v>      -0.00725321       0.05746692       0.15717299 </v>
   <v>       0.00340367       0.16616414      -0.26432035 </v>
   <v>       0.00435498      -0.15073362       0.12559008 </v>
   <v>       0.00115479      -0.07702683       0.01904640 </v>
   <v>       0.00452306       0.10224389       0.10555487 </v>
   <v>       0.00051932       0.10956451      -0.10590157 </v>
   <v>       0.03124407       0.00151394      -0.02829916 </v>
   <v>      -0.03457317       0.00320373      -0.02808641 </v>
   <v>      -0.00182080       0.00109940       0.06451739 </v>
   <v>      -0.03896664       0.00713803      -0.05896790 </v>
   <v>      -0.02813104      -0.05825276       0.01099102 </v>
   <v>       0.00214056      -0.08052981       0.13192667 </v>
   <v>      -0.00352221       0.04238454       0.08530712 </v>
   <v>       0.07747869      -0.11918841      -0.22327417 </v>
   <v>      -0.00797198      -0.12831191       0.00826884 </v>
  </varray>
  <varray name="stress" >
   <v>      -0.21966929      -0.02121368      -0.02840419 </v>
   <v>      -0.02121368       1.89570278       0.24960378 </v>
   <v>      -0.02840418       0.24960380       2.50317316 </v>
  </varray>
  <energy>
   <i name="e_fr_energy">   -100.55585418 </i>
   <i name="e_wo_entrp">   -100.55585418 </i>
   <i name="e_0_energy">   -100.55585418 </i>
  </energy>
  <time name="totalsc">    4.24    4.38</time>
 </calculation>
 <calculation>
  <scstep>
   <time name="diag">    0.08    0.08</time>
   <time name="diis">    0.28    0.29</time>
   <time name="orth">    0.00    0.00</time>
   <time name="total">    0.59    0.60</time>
   <energy>
    <i name="alphaZ">      9.72596956 </i>
    <i name="ewald">   1898.05748003 </i>
    <i name="hartreedc">  -3726.52359551 </i>
    <i name="XCdc">    180.43699695 </i>
    <i name="pawpsdc">   4328.83784908 </i>
    <i name="pawaedc">  -4341.25023333 </i>
    <i name="eentropy">     -0.00000000 </i>
    <i name="bandstr">   -608.82006056 </i>
    <i name="atom">   2158.97731088 </i>
    <i name="e_fr_energy">   -100.55828291 </i>
    <i name="e_wo_entrp">   -100.55828291 </i>
    <i name="e_0_energy">   -100.55828291 </i>
   </energy>
  </scstep>
  <scstep>
   <time name="diag">    0.08    0.08</time>
   <time name="diis">    0.29    0.29</time>
   <time name="orth">    0.01    0.01</time>
   <time name="total">    0.60    0.61</time>
   <energy>
    <i name="e_fr_energy">   -100.55985353 </i>
    <i name="e_wo_entrp">   -100.55985353 </i>
    <i name="e_0_energy">   -100.55985353 </i>
   </energy>
  </scstep>
  <scstep>
   <time name="diag">    0.07    0.07</time>
   <time name="diis">    0.29    0.30</time>
   <time name="orth">    0.01    0.01</time>
   <time name="total">    0.59    0.60</time>
   <energy>
    <i name="e_fr_energy">   -100.56007373 </i>
    <i name="e_wo_entrp">   -100.56007373 </i>
    <i name="e_0_energy">   -100.56007373 </i>
   </energy>
  </scstep>
  <scstep>
   <time name="diag">    0.07    0.07</time>
   <time name="diis">    0.29    0.29</time>
   <time name="orth">    0.01    0.01</time>
   <time name="total">    0.59    0.60</time>
   <energy>
    <i name="e_fr_energy">   -100.56002711 </i>
    <i name="e_wo_entrp">   -100.56002711 </i>
    <i name="e_0_energy">   -100.56002711 </i>
   </energy>
  </scstep>
  <scstep>
   <time name="diag">    0.07    0.07</time>
   <time name="diis">    0.28    0.29</time>
   <time name="orth">    0.00    0.01</time>
   <time name="total">    0.59    0.60</time>
   <energy>
    <i name="e_fr_energy">   -100.56004361 </i>
    <i name="e_wo_entrp">   -100.56004361 </i>
    <i name="e_0_energy">   -100.56004361 </i>
   </energy>
  </scstep>
  <scstep>
   <time name="diag">    0.06    0.06</time>
   <time name="diis">    0.21    0.21</time>
   <time name="orth">    0.00    0.00</time>
   <time name="total">    0.45    0.46</time>
   <energy>
    <i name="alphaZ">      9.72596956 </i>
    <i name="ewald">   1898.05748003 </i>
    <i name="hartreedc">  -3725.77034149 </i>
    <i name="XCdc">    180.40888218 </i>
    <i name="pawpsdc">   4311.96943048 </i>
    <i name="pawaedc">  -4324.36975841 </i>
    <i name="eentropy">     -0.00000000 </i>
    <i name="bandstr">   -609.55902318 </i>
    <i name="atom">   2158.97731088 </i>
    <i name="e_fr_energy">   -100.56004996 </i>
    <i name="e_wo_entrp">   -100.56004996 </i>
    <i name="e_0_energy">   -100.56004996 </i>
   </energy>
  </scstep>
  <structure>
   <crystal>
    <varray name="basis" >
     <v>       7.75760000       0.00000000       0.00000000 </v>
     <v>       0.00000000      11.70620000       0.00000000 </v>
     <v>       0.00000000       0.00000000      11.32900000 </v>
    </varray>
    <i name="volume">   1028.80934195 </i>
    <varray name="rec_basis" >
     <v>       0.12890585       0.00000000       0.00000000 </v>
     <v>       0.00000000       0.08542482       0.00000000 </v>
     <v>       0.00000000       0.00000000       0.08826904 </v>
    </varray>
   </crystal>
   <varray name="positions" >
    <v>       0.49995499       0.70864327       0.54294133 </v>
    <v>       0.49954428       0.58085498       0.54586038 </v>
    <v>       0.49910357       0.51776971       0.44270733 </v>
    <v>       0.49907643       0.39782999       0.44176655 </v>
    <v>       0.50067369       0.39809745       0.64397097 </v>
    <v>       0.49967690       0.51674815       0.65048155 </v>
    <v>       0.50016836       0.57316057       0.33527514 </v>
    <v>       0.61363065       0.74152070       0.49605054 </v>
    <v>       0.38635491       0.74179156       0.49617377 </v>
    <v>       0.50017434       0.74379439       0.63257081 </v>
    <v>       0.53423305       0.38021455       0.26430407 </v>
    <v>       0.52814710       0.25575174       0.34384333 </v>
    <v>       0.50184453       0.34704338       0.72454851 </v>
    <v>       0.49986886       0.55969599       0.73565310 </v>
    <v>       0.49135458       0.33858157       0.33688442 </v>
    <v>       0.50088851       0.33870120       0.54283543 </v>
   </varray>
  </structure>
  <varray name="forces" >
   <v>      -0.00125748       0.13031650       0.03102812 </v>
   <v>      -0.00229866      -0.02406886      -0.09753478 </v>
   <v>       0.00059477       0.08842697      -0.09614164 </v>
   <v>       0.00315045       0.03725341      -0.10380675 </v>
   <v>      -0.00333953      -0.00652998       0.05782685 </v>
   <v>       0.00297114      -0.05884821       0.09153709 </v>
   <v>      -0.01771990       0.02848114       0.01173238 </v>
   <v>       0.01335576      -0.00075423      -0.01423414 </v>
   <v>      -0.01325514       0.00148050      -0.01426630 </v>
   <v>      -0.00000889       0.01216032       0.03131072 </v>
   <v>      -0.01103517       0.00898260      -0.08703835 </v>
   <v>      -0.01364663      -0.06713682      -0.02614958 </v>
   <v>       0.00319532      -0.04245063       0.06812153 </v>
   <v>      -0.00087128       0.03735866       0.08592970 </v>
   <v>       0.04596985      -0.07376980       0.00126155 </v>
   <v>      -0.00580461      -0.07090155       0.06042360 </v>
  </varray>
  <varray name="stress" >
   <v>      -0.22595539      -0.02219213      -0.05342792 </v>
   <v>      -0.02219214       0.90513384       0.09930708 </v>
   <v>      -0.05342792       0.09930708       1.48627663 </v>
  </varray>
  <energy>
   <i name="e_fr_energy">   -100.56004996 </i>
   <i name="e_wo_entrp">   -100.56004996 </i>
   <i name="e_0_energy">   -100.56004996 </i>
  </energy>
  <time name="totalsc">    4.40    4.59</time>
 </calculation>
 <calculation>
  <scstep>
   <time name="diag">    0.08    0.08</time>
   <time name="diis">    0.24    0.25</time>
   <time name="orth">    0.00    0.00</time>
   <time name="total">    0.57    0.58</time>
   <energy>
    <i name="alphaZ">      9.72596956 </i>
    <i name="ewald">   1895.69931525 </i>
    <i name="hartreedc">  -3723.70425835 </i>
    <i name="XCdc">    180.39050915 </i>
    <i name="pawpsdc">   4310.86016456 </i>
    <i name="pawaedc">  -4323.26198461 </i>
    <i name="eentropy">     -0.00000000 </i>
    <i name="bandstr">   -609.24718082 </i>
    <i name="atom">   2158.97731088 </i>
    <i name="e_fr_energy">   -100.56015438 </i>
    <i name="e_wo_entrp">   -100.56015438 </i>
    <i name="e_0_energy">   -100.56015438 </i>
   </energy>
  </scstep>
  <scstep>
   <time name="diag">    0.08    0.08</time>
   <time name="diis">    0.26    0.26</time>
   <time name="orth">    0.00    0.00</time>
   <time name="total">    0.58    0.58</time>
   <energy>
    <i name="e_fr_energy">   -100.56029109 </i>
    <i name="e_wo_entrp">   -100.56029109 </i>
    <i name="e_0_energy">   -100.56029109 </i>
   </energy>
  </scstep>
  <scstep>
   <time name="diag">    0.08    0.08</time>
   <time name="diis">    0.29    0.30</time>
   <time name="orth">    0.00    0.01</time>
   <time name="total">    0.61    0.62</time>
   <energy>
    <i name="e_fr_energy">   -100.56031422 </i>
    <i name="e_wo_entrp">   -100.56031422 </i>
    <i name="e_0_energy">   -100.56031422 </i>
   </energy>
  </scstep>
  <scstep>
   <time name="diag">    0.07    0.08</time>
   <time name="diis">    0.28    0.28</time>
   <time name="orth">    0.01    0.01</time>
   <time name="total">    0.58    0.59</time>
   <energy>
    <i name="e_fr_energy">   -100.56031257 </i>
    <i name="e_wo_entrp">   -100.56031257 </i>
    <i name="e_0_energy">   -100.56031257 </i>
   </energy>
  </scstep>
  <scstep>
   <time name="diag">    0.08    0.08</time>
   <time name="diis">    0.21    0.21</time>
   <time name="orth">    0.00    0.00</time>
   <time name="total">    0.51    0.52</time>
   <energy>
    <i name="e_fr_energy">   -100.56031514 </i>
    <i name="e_wo_entrp">   -100.56031514 </i>
    <i name="e_0_energy">   -100.56031514 </i>
   </energy>
  </scstep>
  <scstep>
   <time name="diag">    0.08    0.08</time>
   <time name="diis">    0.20    0.21</time>
   <time name="orth">    0.01    0.01</time>
   <time name="total">    0.47    0.48</time>
   <energy>
    <i name="alphaZ">      9.72596956 </i>
    <i name="ewald">   1895.69931525 </i>
    <i name="hartreedc">  -3723.46209553 </i>
    <i name="XCdc">    180.38179191 </i>
    <i name="pawpsdc">   4305.48728550 </i>
    <i name="pawaedc">  -4317.88572440 </i>
    <i name="eentropy">     -0.00000000 </i>
    <i name="bandstr">   -609.48417031 </i>
    <i name="atom">   2158.97731088 </i>
    <i name="e_fr_energy">   -100.56031714 </i>
    <i name="e_wo_entrp">   -100.56031714 </i>
    <i name="e_0_energy">   -100.56031714 </i>
   </energy>
  </scstep>
  <structure>
   <crystal>
    <varray name="basis" >
     <v>       7.75760000       0.00000000       0.00000000 </v>
     <v>       0.00000000      11.70620000       0.00000000 </v>
     <v>       0.00000000       0.00000000      11.32900000 </v>
    </varray>
    <i name="volume">   1028.80934195 </i>
    <varray name="rec_basis" >
     <v>       0.12890585       0.00000000       0.00000000 </v>
     <v>       0.00000000       0.08542482       0.00000000 </v>
     <v>       0.00000000       0.00000000       0.08826904 </v>
    </varray>
   </crystal>
   <varray name="positions" >
    <v>       0.49995317       0.70868697       0.54294406 </v>
    <v>       0.49953853       0.58090815       0.54593935 </v>
    <v>       0.49910458       0.51782117       0.44263377 </v>
    <v>       0.49907920       0.39775323       0.44180807 </v>
    <v>       0.50067453       0.39805788       0.64398711 </v>
    <v>       0.49968079       0.51679821       0.65052784 </v>
    <v>       0.50016934       0.57324928       0.33515422 </v>
    <v>       0.61366617       0.74152505       0.49603115 </v>
    <v>       0.38631673       0.74179686       0.49615444 </v>
    <v>       0.50017297       0.74379822       0.63261369 </v>
    <v>       0.53421129       0.38022606       0.26425554 </v>
    <v>       0.52813224       0.25570328       0.34384993 </v>
    <v>       0.50184648       0.34699632       0.72462678 </v>
    <v>       0.49986605       0.55972390       0.73571008 </v>
    <v>       0.49140080       0.33853110       0.33678598 </v>
    <v>       0.50088188       0.33862353       0.54284522 </v>
   </varray>
  </structure>
  <varray name="forces" >
   <v>       0.00178007       0.13261536       0.04335067 </v>
   <v>      -0.00693402      -0.04635211      -0.17437718 </v>
   <v>      -0.00292451       0.06311306      -0.04935220 </v>
   <v>       0.00290896       0.08725820      -0.17218952 </v>
   <v>      -0.00725079       0.01496048       0.07303467 </v>
   <v>       0.00262594      -0.10914224       0.08299140 </v>
   <v>      -0.00770082       0.00238833       0.04406886 </v>
   <v>       0.00730428       0.00038479      -0.00945665 </v>
   <v>      -0.00772431       0.00278511      -0.00954635 </v>
   <v>      -0.00022686       0.01745670       0.02224705 </v>
   <v>      -0.00381537       0.01159375      -0.09503710 </v>
   <v>      -0.01030348      -0.06801067      -0.03657507 </v>
   <v>       0.00275313      -0.02957176       0.05048065 </v>
   <v>      -0.00090377       0.03773438       0.08717068 </v>
   <v>       0.03643679      -0.06090855       0.06540940 </v>
   <v>      -0.00602523      -0.05630484       0.07778068 </v>
  </varray>
  <varray name="stress" >
   <v>      -0.24508223      -0.01825668      -0.06277406 </v>
   <v>      -0.01825668       0.61277653       0.03797357 </v>
   <v>      -0.06277406       0.03797356       1.17806639 </v>
  </varray>
  <energy>
   <i name="e_fr_energy">   -100.56031714 </i>
   <i name="e_wo_entrp">   -100.56031714 </i>
   <i name="e_0_energy">   -100.56031714 </i>
  </energy>
  <time name="totalsc">    4.26    4.47</time>
 </calculation>
 <calculation>
  <scstep>
   <time name="diag">    0.08    0.08</time>
   <time name="diis">    0.27    0.28</time>
   <time name="orth">    0.00    0.00</time>
   <time name="total">    0.58    0.59</time>
   <energy>
    <i name="alphaZ">      9.72596956 </i>
    <i name="ewald">   1890.38786397 </i>
    <i name="hartreedc">  -3718.87450635 </i>
    <i name="XCdc">    180.33139009 </i>
    <i name="pawpsdc">   4305.15836568 </i>
    <i name="pawaedc">  -4317.55726531 </i>
    <i name="eentropy">     -0.00000000 </i>
    <i name="bandstr">   -608.71031107 </i>
    <i name="atom">   2158.97731088 </i>
    <i name="e_fr_energy">   -100.56118254 </i>
    <i name="e_wo_entrp">   -100.56118254 </i>
    <i name="e_0_energy">   -100.56118254 </i>
   </energy>
  </scstep>
  <scstep>
   <time name="diag">    0.07    0.07</time>
   <time name="diis">    0.28    0.29</time>
   <time name="orth">    0.00    0.00</time>
   <time name="total">    0.59    0.60</time>
   <energy>
    <i name="e_fr_energy">   -100.56187285 </i>
    <i name="e_wo_entrp">   -100.56187285 </i>
    <i name="e_0_energy">   -100.56187285 </i>
   </energy>
  </scstep>
  <scstep>
   <time name="diag">    0.08    0.08</time>
   <time name="diis">    0.29    0.29</time>
   <time name="orth">    0.00    0.01</time>
   <time name="total">    0.60    0.61</time>
   <energy>
    <i name="e_fr_energy">   -100.56194383 </i>
    <i name="e_wo_entrp">   -100.56194383 </i>
    <i name="e_0_energy">   -100.56194383 </i>
   </energy>
  </scstep>
  <scstep>
   <time name="diag">    0.07    0.08</time>
   <time name="diis">    0.28    0.29</time>
   <time name="orth">    0.00    0.01</time>
   <time name="total">    0.58    0.59</time>
   <energy>
    <i name="e_fr_energy">   -100.56191737 </i>
    <i name="e_wo_entrp">   -100.56191737 </i>
    <i name="e_0_energy">   -100.56191737 </i>
   </energy>
  </scstep>
  <scstep>
   <time name="diag">    0.06    0.07</time>
   <time name="diis">    0.28    0.29</time>
   <time name="orth">    0.00    0.00</time>
   <time name="total">    0.57    0.59</time>
   <energy>
    <i name="e_fr_energy">   -100.56192191 </i>
    <i name="e_wo_entrp">   -100.56192191 </i>
    <i name="e_0_energy">   -100.56192191 </i>
   </energy>
  </scstep>
  <scstep>
   <time name="diag">    0.07    0.07</time>
   <time name="diis">    0.23    0.23</time>
   <time name="orth">    0.01    0.01</time>
   <time name="total">    0.48    0.49</time>
   <energy>
    <i name="alphaZ">      9.72596956 </i>
    <i name="ewald">   1890.38786397 </i>
    <i name="hartreedc">  -3718.38417309 </i>
    <i name="XCdc">    180.31226966 </i>
    <i name="pawpsdc">   4292.88610534 </i>
    <i name="pawaedc">  -4305.27784853 </i>
    <i name="eentropy">     -0.00000000 </i>
    <i name="bandstr">   -609.18942316 </i>
    <i name="atom">   2158.97731088 </i>
    <i name="e_fr_energy">   -100.56192538 </i>
    <i name="e_wo_entrp">   -100.56192538 </i>
    <i name="e_0_energy">   -100.56192538 </i>
   </energy>
  </scstep>
  <structure>
   <crystal>
    <varray name="basis" >
     <v>       7.75760000       0.00000000       0.00000000 </v>
     <v>       0.00000000      11.70620000       0.00000000 </v>
     <v>       0.00000000       0.00000000      11.32900000 </v>
    </varray>
    <i name="volume">   1028.80934195 </i>
    <varray name="rec_basis" >
     <v>       0.12890585       0.00000000       0.00000000 </v>
     <v>       0.00000000       0.08542482       0.00000000 </v>
     <v>       0.00000000       0.00000000       0.08826904 </v>
    </varray>
   </crystal>
   <varray name="positions" >
    <v>       0.49995468       0.70897981       0.54302334 </v>
    <v>       0.49951167       0.58091754       0.54576737 </v>
    <v>       0.49909886       0.51801061       0.44242849 </v>
    <v>       0.49909107       0.39777362       0.44157871 </v>
    <v>       0.50065764       0.39801824       0.64413950 </v>
    <v>       0.49969375       0.51669767       0.65074664 </v>
    <v>       0.50015154       0.57339812       0.33503286 </v>
    <v>       0.61374258       0.74153279       0.49598315 </v>
    <v>       0.38623492       0.74181017       0.49610641 </v>
    <v>       0.50017016       0.74383363       0.63272209 </v>
    <v>       0.53416614       0.38026421       0.26401229 </v>
    <v>       0.52808201       0.25551056       0.34379758 </v>
    <v>       0.50185660       0.34687009       0.72484170 </v>
    <v>       0.49985918       0.55983250       0.73595354 </v>
    <v>       0.49156810       0.33834697       0.33673815 </v>
    <v>       0.50085587       0.33840268       0.54299543 </v>
   </varray>
  </structure>
  <varray name="forces" >
   <v>      -0.00208760      -0.00009576      -0.01023625 </v>
   <v>       0.00288753      -0.02393838       0.00485501 </v>
   <v>      -0.00273880      -0.05209928      -0.02152964 </v>
   <v>      -0.00107839       0.02264619       0.03438068 </v>
   <v>      -0.00383349      -0.03526998       0.06751363 </v>
   <v>      -0.00390438       0.00294200      -0.03828406 </v>
   <v>       0.00104864      -0.00113689       0.02690977 </v>
   <v>       0.00161169       0.01727519      -0.00209472 </v>
   <v>      -0.00204982       0.01971729      -0.00137959 </v>
   <v>      -0.00088815       0.03334183       0.03422826 </v>
   <v>      -0.03882056      -0.05478082      -0.01401131 </v>
   <v>      -0.00272437      -0.07553143      -0.03639280 </v>
   <v>       0.00078103      -0.00804508       0.01946182 </v>
   <v>      -0.00113044       0.01370262       0.04160211 </v>
   <v>       0.06049382       0.04702181      -0.02179710 </v>
   <v>      -0.00756672       0.09425070      -0.08322581 </v>
  </varray>
  <varray name="stress" >
   <v>      -0.26743171      -0.06244304      -0.03717844 </v>
   <v>      -0.06244306      -0.00903178       0.40028030 </v>
   <v>      -0.03717844       0.40028028       0.30407771 </v>
  </varray>
  <energy>
   <i name="e_fr_energy">   -100.56192538 </i>
   <i name="e_wo_entrp">   -100.56192538 </i>
   <i name="e_0_energy">   -100.56192538 </i>
  </energy>
  <time name="totalsc">    4.47    4.74</time>
 </calculation>
 <calculation>
  <scstep>
   <time name="diag">    0.04    0.04</time>
   <time name="diis">    0.24    0.24</time>
   <time name="orth">    0.00    0.00</time>
   <time name="total">    0.47    0.48</time>
   <energy>
    <i name="alphaZ">      9.72596956 </i>
    <i name="ewald">   1890.53315722 </i>
    <i name="hartreedc">  -3718.49058978 </i>
    <i name="XCdc">    180.31382678 </i>
    <i name="pawpsdc">   4291.75121210 </i>
    <i name="pawaedc">  -4304.14358811 </i>
    <i name="eentropy">     -0.00000000 </i>
    <i name="bandstr">   -609.22922441 </i>
    <i name="atom">   2158.97731088 </i>
    <i name="e_fr_energy">   -100.56192575 </i>
    <i name="e_wo_entrp">   -100.56192575 </i>
    <i name="e_0_energy">   -100.56192575 </i>
   </energy>
  </scstep>
  <scstep>
   <time name="diag">    0.08    0.08</time>
   <time name="diis">    0.17    0.17</time>
   <time name="orth">    0.00    0.00</time>
   <time name="total">    0.49    0.51</time>
   <energy>
    <i name="e_fr_energy">   -100.56192821 </i>
    <i name="e_wo_entrp">   -100.56192821 </i>
    <i name="e_0_energy">   -100.56192821 </i>
   </energy>
  </scstep>
  <scstep>
   <time name="diag">    0.08    0.08</time>
   <time name="diis">    0.21    0.21</time>
   <time name="orth">    0.00    0.00</time>
   <time name="total">    0.54    0.55</time>
   <energy>
    <i name="e_fr_energy">   -100.56193115 </i>
    <i name="e_wo_entrp">   -100.56193115 </i>
    <i name="e_0_energy">   -100.56193115 </i>
   </energy>
  </scstep>
  <scstep>
   <time name="diag">    0.08    0.08</time>
   <time name="diis">    0.17    0.17</time>
   <time name="orth">    0.01    0.01</time>
   <time name="total">    0.49    0.49</time>
   <energy>
    <i name="e_fr_energy">   -100.56193317 </i>
    <i name="e_wo_entrp">   -100.56193317 </i>
    <i name="e_0_energy">   -100.56193317 </i>
   </energy>
  </scstep>
  <scstep>
   <time name="diag">    0.04    0.04</time>
   <time name="diis">    0.14    0.14</time>
   <time name="orth">    0.01    0.01</time>
   <time name="total">    0.44    0.44</time>
   <energy>
    <i name="e_fr_energy">   -100.56193551 </i>
    <i name="e_wo_entrp">   -100.56193551 </i>
    <i name="e_0_energy">   -100.56193551 </i>
   </energy>
  </scstep>
  <scstep>
   <time name="diag">    0.08    0.08</time>
   <time name="diis">    0.14    0.14</time>
   <time name="orth">    0.01    0.01</time>
   <time name="total">    0.43    0.44</time>
   <energy>
    <i name="alphaZ">      9.72596956 </i>
    <i name="ewald">   1890.53315722 </i>
    <i name="hartreedc">  -3718.50430872 </i>
    <i name="XCdc">    180.31417536 </i>
    <i name="pawpsdc">   4291.78092283 </i>
    <i name="pawaedc">  -4304.17344544 </i>
    <i name="eentropy">     -0.00000000 </i>
    <i name="bandstr">   -609.21571884 </i>
    <i name="atom">   2158.97731088 </i>
    <i name="e_fr_energy">   -100.56193715 </i>
    <i name="e_wo_entrp">   -100.56193715 </i>
    <i name="e_0_energy">   -100.56193715 </i>
   </energy>
  </scstep>
  <structure>
   <crystal>
    <varray name="basis" >
     <v>       7.75760000       0.00000000       0.00000000 </v>
     <v>       0.00000000      11.70620000       0.00000000 </v>
     <v>       0.00000000       0.00000000      11.32900000 </v>
    </varray>
    <i name="volume">   1028.80934195 </i>
    <varray name="rec_basis" >
     <v>       0.12890585       0.00000000       0.00000000 </v>
     <v>       0.00000000       0.08542482       0.00000000 </v>
     <v>       0.00000000       0.00000000       0.08826904 </v>
    </varray>
   </crystal>
   <varray name="positions" >
    <v>       0.49995464       0.70897179       0.54302117 </v>
    <v>       0.49951240       0.58091728       0.54577208 </v>
    <v>       0.49909902       0.51800542       0.44243411 </v>
    <v>       0.49909074       0.39777307       0.44158499 </v>
    <v>       0.50065810       0.39801933       0.64413532 </v>
    <v>       0.49969339       0.51670043       0.65074064 </v>
    <v>       0.50015202       0.57339404       0.33503618 </v>
    <v>       0.61374048       0.74153258       0.49598447 </v>
    <v>       0.38623716       0.74180980       0.49610773 </v>
    <v>       0.50017024       0.74383266       0.63271912 </v>
    <v>       0.53416738       0.38026316       0.26401895 </v>
    <v>       0.52808339       0.25551584       0.34379901 </v>
    <v>       0.50185632       0.34687355       0.72483582 </v>
    <v>       0.49985937       0.55982953       0.73594687 </v>
    <v>       0.49156352       0.33835202       0.33673946 </v>
    <v>       0.50085658       0.33840873       0.54299131 </v>
   </varray>
  </structure>
  <varray name="forces" >
   <v>      -0.00203524       0.00327191      -0.00867440 </v>
   <v>       0.00275857      -0.02477336      -0.00030943 </v>
   <v>      -0.00269790      -0.04829043      -0.02313972 </v>
   <v>      -0.00120162       0.02526473       0.02683720 </v>
   <v>      -0.00386880      -0.03378087       0.06851355 </v>
   <v>      -0.00381180      -0.00044961      -0.03475179 </v>
   <v>       0.00100941       0.00056125       0.02523673 </v>
   <v>       0.00187100       0.01687328      -0.00202061 </v>
   <v>      -0.00233781       0.01932615      -0.00131619 </v>
   <v>      -0.00089758       0.03292353       0.03456467 </v>
   <v>      -0.03794300      -0.05286371      -0.01608171 </v>
   <v>      -0.00290054      -0.07595692      -0.03605286 </v>
   <v>       0.00080983      -0.00886371       0.02071760 </v>
   <v>      -0.00119674       0.01464285       0.04317562 </v>
   <v>       0.06016696       0.04309028      -0.02028855 </v>
   <v>      -0.00772475       0.08902462      -0.07641011 </v>
  </varray>
  <varray name="stress" >
   <v>      -0.26214779      -0.06211886      -0.03935796 </v>
   <v>      -0.06211888       0.00218951       0.38927171 </v>
   <v>      -0.03935797       0.38927170       0.31953218 </v>
  </varray>
  <energy>
   <i name="e_fr_energy">   -100.56193715 </i>
   <i name="e_wo_entrp">   -100.56193715 </i>
   <i name="e_0_energy">   -100.56193715 </i>
  </energy>
  <time name="totalsc">    3.94    4.09</time>
 </calculation>
 <calculation>
  <scstep>
   <time name="diag">    0.08    0.08</time>
   <time name="diis">    0.27    0.27</time>
   <time name="orth">    0.00    0.00</time>
   <time name="total">    0.59    0.60</time>
   <energy>
    <i name="alphaZ">      9.72596956 </i>
    <i name="ewald">   1889.58260387 </i>
    <i name="hartreedc">  -3717.70684409 </i>
    <i name="XCdc">    180.29956547 </i>
    <i name="pawpsdc">   4291.77624816 </i>
    <i name="pawaedc">  -4304.16875319 </i>
    <i name="eentropy">     -0.00000000 </i>
    <i name="bandstr">   -609.04845867 </i>
    <i name="atom">   2158.97731088 </i>
    <i name="e_fr_energy">   -100.56235801 </i>
    <i name="e_wo_entrp">   -100.56235801 </i>
    <i name="e_0_energy">   -100.56235801 </i>
   </energy>
  </scstep>
  <scstep>
   <time name="diag">    0.06    0.10</time>
   <time name="diis">    0.24    0.25</time>
   <time name="orth">    0.00    0.00</time>
   <time name="total">    0.51    0.55</time>
   <energy>
    <i name="e_fr_energy">   -100.56249647 </i>
    <i name="e_wo_entrp">   -100.56249647 </i>
    <i name="e_0_energy">   -100.56249647 </i>
   </energy>
  </scstep>
  <scstep>
   <time name="diag">    0.06    0.06</time>
   <time name="diis">    0.26    0.26</time>
   <time name="orth">    0.01    0.01</time>
   <time name="total">    0.51    0.51</time>
   <energy>
    <i name="e_fr_energy">   -100.56251849 </i>
    <i name="e_wo_entrp">   -100.56251849 </i>
    <i name="e_0_energy">   -100.56251849 </i>
   </energy>
  </scstep>
  <scstep>
   <time name="diag">    0.07    0.07</time>
   <time name="diis">    0.24    0.24</time>
   <time name="orth">    0.00    0.00</time>
   <time name="total">    0.57    0.58</time>
   <energy>
[...]
        <r>  0.0000  0.0000  0.0000  0.0000  0.0000  0.0000  0.0000  0.0000  0.0000 </r>
        <r>  0.0027  0.0001  0.0006  0.0031  0.0000  0.0000  0.0000  0.0000  0.0000 </r>
        <r>  0.0023  0.0005  0.0000  0.0031  0.0000  0.0000  0.0000  0.0000  0.0000 </r>
        <r>  0.0000  0.0000  0.0000  0.0007  0.0000  0.0000  0.0000  0.0000  0.0000 </r>
        <r>  0.0000  0.0000  0.0000  0.0016  0.0000  0.0000  0.0000  0.0000  0.0000 </r>
        <r>  0.0064  0.0007  0.0044  0.1871  0.0000  0.0000  0.0000  0.0000  0.0000 </r>
        <r>  0.0002  0.0006  0.0001  0.0343  0.0000  0.0000  0.0000  0.0000  0.0000 </r>
       </set>
       <set comment="band 25">
        <r>  0.0000  0.0000  0.0000  0.0001  0.0000  0.0000  0.0000  0.0000  0.0000 </r>
        <r>  0.0000  0.0000  0.0000  0.1524  0.0000  0.0000  0.0000  0.0000  0.0000 </r>
        <r>  0.0000  0.0000  0.0000  0.0699  0.0000  0.0000  0.0000  0.0000  0.0000 </r>
        <r>  0.0000  0.0000  0.0000  0.0254  0.0000  0.0000  0.0000  0.0000  0.0000 </r>
        <r>  0.0000  0.0000  0.0000  0.0739  0.0000  0.0000  0.0000  0.0000  0.0000 </r>
        <r>  0.0000  0.0000  0.0000  0.0055  0.0000  0.0000  0.0000  0.0000  0.0000 </r>
        <r>  0.0000  0.0000  0.0000  0.0149  0.0000  0.0000  0.0000  0.0000  0.0000 </r>
        <r>  0.0103  0.0001  0.0000  0.0000  0.0000  0.0000  0.0000  0.0000  0.0000 </r>
        <r>  0.0103  0.0002  0.0000  0.0000  0.0000  0.0000  0.0000  0.0000  0.0000 </r>
        <r>  0.0000  0.0000  0.0000  0.0000  0.0000  0.0000  0.0000  0.0000  0.0000 </r>
        <r>  0.0002  0.0000  0.0000  0.0001  0.0000  0.0000  0.0000  0.0000  0.0000 </r>
        <r>  0.0006  0.0000  0.0000  0.0005  0.0000  0.0000  0.0000  0.0000  0.0000 </r>
        <r>  0.0000  0.0000  0.0000  0.0022  0.0000  0.0000  0.0000  0.0000  0.0000 </r>
        <r>  0.0000  0.0000  0.0000  0.0002  0.0000  0.0000  0.0000  0.0000  0.0000 </r>
        <r>  0.0005  0.0004  0.0001  0.0066  0.0000  0.0000  0.0000  0.0000  0.0000 </r>
        <r>  0.0000  0.0001  0.0000  0.1502  0.0000  0.0000  0.0000  0.0000  0.0000 </r>
       </set>
       <set comment="band 26">
        <r>  0.0098  0.0011  0.0001  0.0000  0.0000  0.0000  0.0000  0.0000  0.0000 </r>
        <r>  0.0002  0.0006  0.0001  0.0002  0.0000  0.0000  0.0000  0.0000  0.0000 </r>
        <r>  0.0000  0.0019  0.0044  0.0041  0.0000  0.0000  0.0000  0.0000  0.0000 </r>
        <r>  0.0000  0.0011  0.0009  0.0071  0.0000  0.0000  0.0000  0.0000  0.0000 </r>
        <r>  0.0000  0.0004  0.0023  0.0049  0.0000  0.0000  0.0000  0.0000  0.0000 </r>
        <r>  0.0013  0.0001  0.0021  0.0058  0.0000  0.0000  0.0000  0.0000  0.0000 </r>
        <r>  0.0041  0.0005  0.0003  0.0012  0.0000  0.0000  0.0000  0.0000  0.0000 </r>
        <r>  0.0000  0.0000  0.0003  0.0008  0.0000  0.0000  0.0000  0.0000  0.0000 </r>
        <r>  0.0000  0.0000  0.0002  0.0007  0.0000  0.0000  0.0000  0.0000  0.0000 </r>
        <r>  0.0000  0.0000  0.0008  0.0000  0.0000  0.0000  0.0000  0.0000  0.0000 </r>
        <r>  0.0007  0.0008  0.0016  0.0005  0.0000  0.0000  0.0000  0.0000  0.0000 </r>
        <r>  0.0010  0.0017  0.0000  0.0003  0.0000  0.0000  0.0000  0.0000  0.0000 </r>
        <r>  0.0000  0.0001  0.0002  0.0002  0.0000  0.0000  0.0000  0.0000  0.0000 </r>
        <r>  0.0003  0.0003  0.0004  0.0002  0.0000  0.0000  0.0000  0.0000  0.0000 </r>
        <r>  0.0141  0.0003  0.0032  0.0000  0.0000  0.0000  0.0000  0.0000  0.0000 </r>
        <r>  0.0015  0.0022  0.0000  0.0000  0.0000  0.0000  0.0000  0.0000  0.0000 </r>
       </set>
       <set comment="band 27">
        <r>  0.0010  0.0001  0.0000  0.0002  0.0000  0.0000  0.0000  0.0000  0.0000 </r>
        <r>  0.0000  0.0001  0.0000  0.0139  0.0000  0.0000  0.0000  0.0000  0.0000 </r>
        <r>  0.0000  0.0002  0.0004  0.0573  0.0000  0.0000  0.0000  0.0000  0.0000 </r>
        <r>  0.0000  0.0000  0.0000  0.1362  0.0000  0.0000  0.0000  0.0000  0.0000 </r>
        <r>  0.0000  0.0000  0.0001  0.0885  0.0000  0.0000  0.0000  0.0000  0.0000 </r>
        <r>  0.0001  0.0000  0.0002  0.1189  0.0000  0.0000  0.0000  0.0000  0.0000 </r>
        <r>  0.0002  0.0000  0.0001  0.0122  0.0000  0.0000  0.0000  0.0000  0.0000 </r>
        <r>  0.0003  0.0001  0.0000  0.0001  0.0000  0.0000  0.0000  0.0000  0.0000 </r>
        <r>  0.0002  0.0000  0.0001  0.0001  0.0000  0.0000  0.0000  0.0000  0.0000 </r>
        <r>  0.0000  0.0000  0.0001  0.0001  0.0000  0.0000  0.0000  0.0000  0.0000 </r>
        <r>  0.0022  0.0001  0.0001  0.0010  0.0000  0.0000  0.0000  0.0000  0.0000 </r>
        <r>  0.0012  0.0001  0.0000  0.0008  0.0000  0.0000  0.0000  0.0000  0.0000 </r>
        <r>  0.0000  0.0000  0.0000  0.0028  0.0000  0.0000  0.0000  0.0000  0.0000 </r>
        <r>  0.0000  0.0000  0.0000  0.0043  0.0000  0.0000  0.0000  0.0000  0.0000 </r>
        <r>  0.0007  0.0002  0.0010  0.0315  0.0000  0.0000  0.0000  0.0000  0.0000 </r>
        <r>  0.0000  0.0001  0.0000  0.0009  0.0000  0.0000  0.0000  0.0000  0.0000 </r>
       </set>
       <set comment="band 28">
        <r>  0.0174  0.0055  0.0000  0.0000  0.0000  0.0000  0.0000  0.0000  0.0000 </r>
        <r>  0.0000  0.0007  0.0000  0.0004  0.0000  0.0000  0.0000  0.0000  0.0000 </r>
        <r>  0.0000  0.0007  0.0001  0.0001  0.0000  0.0000  0.0000  0.0000  0.0000 </r>
        <r>  0.0005  0.0005  0.0012  0.0004  0.0000  0.0000  0.0000  0.0000  0.0000 </r>
        <r>  0.0001  0.0002  0.0012  0.0006  0.0000  0.0000  0.0000  0.0000  0.0000 </r>
        <r>  0.0014  0.0007  0.0002  0.0008  0.0000  0.0000  0.0000  0.0000  0.0000 </r>
        <r>  0.0000  0.0013  0.0006  0.0000  0.0000  0.0000  0.0000  0.0000  0.0000 </r>
        <r>  0.0001  0.0000  0.0004  0.0017  0.0000  0.0000  0.0000  0.0000  0.0000 </r>
        <r>  0.0003  0.0001  0.0003  0.0018  0.0000  0.0000  0.0000  0.0000  0.0000 </r>
        <r>  0.0002  0.0001  0.0023  0.0000  0.0000  0.0000  0.0000  0.0000  0.0000 </r>
        <r>  0.0005  0.0011  0.0032  0.0003  0.0000  0.0000  0.0000  0.0000  0.0000 </r>
        <r>  0.0003  0.0027  0.0000  0.0001  0.0000  0.0000  0.0000  0.0000  0.0000 </r>
        <r>  0.0000  0.0001  0.0001  0.0000  0.0000  0.0000  0.0000  0.0000  0.0000 </r>
        <r>  0.0006  0.0002  0.0002  0.0000  0.0000  0.0000  0.0000  0.0000  0.0000 </r>
        <r>  0.0143  0.0008  0.0060  0.0032  0.0000  0.0000  0.0000  0.0000  0.0000 </r>
        <r>  0.0005  0.0010  0.0006  0.0000  0.0000  0.0000  0.0000  0.0000  0.0000 </r>
       </set>
       <set comment="band 29">
        <r>  0.0051  0.0020  0.0069  0.0000  0.0000  0.0000  0.0000  0.0000  0.0000 </r>
        <r>  0.0000  0.0012  0.0002  0.0000  0.0000  0.0000  0.0000  0.0000  0.0000 </r>
        <r>  0.0032  0.0062  0.0052  0.0000  0.0000  0.0000  0.0000  0.0000  0.0000 </r>
        <r>  0.0001  0.0017  0.0000  0.0000  0.0000  0.0000  0.0000  0.0000  0.0000 </r>
        <r>  0.0077  0.0031  0.0056  0.0000  0.0000  0.0000  0.0000  0.0000  0.0000 </r>
        <r>  0.0044  0.0048  0.0074  0.0000  0.0000  0.0000  0.0000  0.0000  0.0000 </r>
        <r>  0.0060  0.0012  0.0061  0.0000  0.0000  0.0000  0.0000  0.0000  0.0000 </r>
        <r>  0.0000  0.0003  0.0001  0.0006  0.0000  0.0000  0.0000  0.0000  0.0000 </r>
        <r>  0.0000  0.0003  0.0001  0.0005  0.0000  0.0000  0.0000  0.0000  0.0000 </r>
        <r>  0.0003  0.0000  0.0003  0.0000  0.0000  0.0000  0.0000  0.0000  0.0000 </r>
        <r>  0.0002  0.0002  0.0003  0.0000  0.0000  0.0000  0.0000  0.0000  0.0000 </r>
        <r>  0.0005  0.0007  0.0000  0.0000  0.0000  0.0000  0.0000  0.0000  0.0000 </r>
        <r>  0.0000  0.0008  0.0024  0.0000  0.0000  0.0000  0.0000  0.0000  0.0000 </r>
        <r>  0.0007  0.0003  0.0032  0.0000  0.0000  0.0000  0.0000  0.0000  0.0000 </r>
        <r>  0.0051  0.0000  0.0000  0.0007  0.0000  0.0000  0.0000  0.0000  0.0000 </r>
        <r>  0.0000  0.0035  0.0002  0.0000  0.0000  0.0000  0.0000  0.0000  0.0000 </r>
       </set>
       <set comment="band 30">
        <r>  0.0000  0.0008  0.0002  0.0000  0.0000  0.0000  0.0000  0.0000  0.0000 </r>
        <r>  0.0020  0.0004  0.0012  0.0001  0.0000  0.0000  0.0000  0.0000  0.0000 </r>
        <r>  0.0016  0.0002  0.0048  0.0001  0.0000  0.0000  0.0000  0.0000  0.0000 </r>
        <r>  0.0007  0.0012  0.0000  0.0000  0.0000  0.0000  0.0000  0.0000  0.0000 </r>
        <r>  0.0002  0.0002  0.0001  0.0000  0.0000  0.0000  0.0000  0.0000  0.0000 </r>
        <r>  0.0005  0.0000  0.0019  0.0000  0.0000  0.0000  0.0000  0.0000  0.0000 </r>
        <r>  0.0049  0.0012  0.0005  0.0000  0.0000  0.0000  0.0000  0.0000  0.0000 </r>
        <r>  0.0001  0.0001  0.0000  0.0000  0.0000  0.0000  0.0000  0.0000  0.0000 </r>
        <r>  0.0002  0.0001  0.0000  0.0000  0.0000  0.0000  0.0000  0.0000  0.0000 </r>
        <r>  0.0002  0.0001  0.0000  0.0000  0.0000  0.0000  0.0000  0.0000  0.0000 </r>
        <r>  0.0001  0.0001  0.0011  0.0002  0.0000  0.0000  0.0000  0.0000  0.0000 </r>
        <r>  0.0001  0.0025  0.0000  0.0002  0.0000  0.0000  0.0000  0.0000  0.0000 </r>
        <r>  0.0001  0.0001  0.0000  0.0000  0.0000  0.0000  0.0000  0.0000  0.0000 </r>
        <r>  0.0006  0.0001  0.0003  0.0000  0.0000  0.0000  0.0000  0.0000  0.0000 </r>
        <r>  0.0000  0.0148  0.0011  0.0000  0.0000  0.0000  0.0000  0.0000  0.0000 </r>
        <r>  0.0004  0.0015  0.0000  0.0001  0.0000  0.0000  0.0000  0.0000  0.0000 </r>
       </set>
       <set comment="band 31">
        <r>  0.0005  0.0004  0.0012  0.0000  0.0000  0.0000  0.0000  0.0000  0.0000 </r>
        <r>  0.0017  0.0000  0.0002  0.0000  0.0000  0.0000  0.0000  0.0000  0.0000 </r>
        <r>  0.0021  0.0001  0.0012  0.0000  0.0000  0.0000  0.0000  0.0000  0.0000 </r>
        <r>  0.0007  0.0000  0.0004  0.0000  0.0000  0.0000  0.0000  0.0000  0.0000 </r>
        <r>  0.0027  0.0000  0.0010  0.0000  0.0000  0.0000  0.0000  0.0000  0.0000 </r>
        <r>  0.0003  0.0002  0.0017  0.0000  0.0000  0.0000  0.0000  0.0000  0.0000 </r>
        <r>  0.0011  0.0000  0.0000  0.0000  0.0000  0.0000  0.0000  0.0000  0.0000 </r>
        <r>  0.0001  0.0000  0.0002  0.0000  0.0000  0.0000  0.0000  0.0000  0.0000 </r>
        <r>  0.0001  0.0000  0.0002  0.0000  0.0000  0.0000  0.0000  0.0000  0.0000 </r>
        <r>  0.0003  0.0001  0.0005  0.0000  0.0000  0.0000  0.0000  0.0000  0.0000 </r>
        <r>  0.0001  0.0000  0.0004  0.0000  0.0000  0.0000  0.0000  0.0000  0.0000 </r>
        <r>  0.0002  0.0000  0.0000  0.0001  0.0000  0.0000  0.0000  0.0000  0.0000 </r>
        <r>  0.0004  0.0003  0.0002  0.0000  0.0000  0.0000  0.0000  0.0000  0.0000 </r>
        <r>  0.0000  0.0001  0.0001  0.0000  0.0000  0.0000  0.0000  0.0000  0.0000 </r>
        <r>  0.0001  0.0008  0.0006  0.0000  0.0000  0.0000  0.0000  0.0000  0.0000 </r>
        <r>  0.0035  0.0006  0.0001  0.0000  0.0000  0.0000  0.0000  0.0000  0.0000 </r>
       </set>
       <set comment="band 32">
        <r>  0.0001  0.0003  0.0196  0.0003  0.0000  0.0000  0.0000  0.0000  0.0000 </r>
        <r>  0.0000  0.0006  0.0002  0.0006  0.0000  0.0000  0.0000  0.0000  0.0000 </r>
        <r>  0.0026  0.0001  0.0003  0.0001  0.0000  0.0000  0.0000  0.0000  0.0000 </r>
        <r>  0.0008  0.0000  0.0002  0.0002  0.0000  0.0000  0.0000  0.0000  0.0000 </r>
        <r>  0.0062  0.0021  0.0028  0.0008  0.0000  0.0000  0.0000  0.0000  0.0000 </r>
        <r>  0.0031  0.0000  0.0054  0.0004  0.0000  0.0000  0.0000  0.0000  0.0000 </r>
        <r>  0.0010  0.0002  0.0006  0.0002  0.0000  0.0000  0.0000  0.0000  0.0000 </r>
        <r>  0.0001  0.0001  0.0000  0.0003  0.0000  0.0000  0.0000  0.0000  0.0000 </r>
        <r>  0.0000  0.0003  0.0000  0.0005  0.0000  0.0000  0.0000  0.0000  0.0000 </r>
        <r>  0.0000  0.0004  0.0027  0.0000  0.0000  0.0000  0.0000  0.0000  0.0000 </r>
        <r>  0.0008  0.0004  0.0006  0.0000  0.0000  0.0000  0.0000  0.0000  0.0000 </r>
        <r>  0.0009  0.0043  0.0000  0.0003  0.0000  0.0000  0.0000  0.0000  0.0000 </r>
        <r>  0.0001  0.0007  0.0020  0.0000  0.0000  0.0000  0.0000  0.0000  0.0000 </r>
        <r>  0.0001  0.0013  0.0010  0.0000  0.0000  0.0000  0.0000  0.0000  0.0000 </r>
        <r>  0.0106  0.0044  0.0001  0.0033  0.0000  0.0000  0.0000  0.0000  0.0000 </r>
        <r>  0.0022  0.0001  0.0003  0.0001  0.0000  0.0000  0.0000  0.0000  0.0000 </r>
       </set>
       <set comment="band 33">
        <r>  0.0033  0.0011  0.0078  0.0000  0.0000  0.0000  0.0000  0.0000  0.0000 </r>
        <r>  0.0001  0.0040  0.0000  0.0000  0.0000  0.0000  0.0000  0.0000  0.0000 </r>
        <r>  0.0043  0.0043  0.0164  0.0000  0.0000  0.0000  0.0000  0.0000  0.0000 </r>
        <r>  0.0002  0.0006  0.0001  0.0000  0.0000  0.0000  0.0000  0.0000  0.0000 </r>
        <r>  0.0004  0.0000  0.0003  0.0000  0.0000  0.0000  0.0000  0.0000  0.0000 </r>
        <r>  0.0089  0.0026  0.0003  0.0000  0.0000  0.0000  0.0000  0.0000  0.0000 </r>
        <r>  0.0068  0.0056  0.0104  0.0000  0.0000  0.0000  0.0000  0.0000  0.0000 </r>
        <r>  0.0002  0.0000  0.0000  0.0001  0.0000  0.0000  0.0000  0.0000  0.0000 </r>
        <r>  0.0001  0.0000  0.0000  0.0001  0.0000  0.0000  0.0000  0.0000  0.0000 </r>
        <r>  0.0005  0.0014  0.0010  0.0000  0.0000  0.0000  0.0000  0.0000  0.0000 </r>
        <r>  0.0005  0.0003  0.0021  0.0003  0.0000  0.0000  0.0000  0.0000  0.0000 </r>
        <r>  0.0001  0.0008  0.0000  0.0002  0.0000  0.0000  0.0000  0.0000  0.0000 </r>
        <r>  0.0000  0.0002  0.0000  0.0000  0.0000  0.0000  0.0000  0.0000  0.0000 </r>
        <r>  0.0006  0.0000  0.0020  0.0000  0.0000  0.0000  0.0000  0.0000  0.0000 </r>
        <r>  0.0021  0.0125  0.0007  0.0004  0.0000  0.0000  0.0000  0.0000  0.0000 </r>
        <r>  0.0001  0.0021  0.0002  0.0000  0.0000  0.0000  0.0000  0.0000  0.0000 </r>
       </set>
       <set comment="band 34">
        <r>  0.0029  0.0029  0.0025  0.0045  0.0000  0.0000  0.0000  0.0000  0.0000 </r>
        <r>  0.0011  0.0002  0.0000  0.0019  0.0000  0.0000  0.0000  0.0000  0.0000 </r>
        <r>  0.0000  0.0006  0.0003  0.0008  0.0000  0.0000  0.0000  0.0000  0.0000 </r>
        <r>  0.0000  0.0002  0.0001  0.0027  0.0000  0.0000  0.0000  0.0000  0.0000 </r>
        <r>  0.0006  0.0013  0.0026  0.0049  0.0000  0.0000  0.0000  0.0000  0.0000 </r>
        <r>  0.0009  0.0012  0.0005  0.0009  0.0000  0.0000  0.0000  0.0000  0.0000 </r>
        <r>  0.0000  0.0000  0.0015  0.0014  0.0000  0.0000  0.0000  0.0000  0.0000 </r>
        <r>  0.0001  0.0007  0.0004  0.0018  0.0000  0.0000  0.0000  0.0000  0.0000 </r>
        <r>  0.0000  0.0000  0.0000  0.0002  0.0000  0.0000  0.0000  0.0000  0.0000 </r>
        <r>  0.0002  0.0000  0.0000  0.0000  0.0000  0.0000  0.0000  0.0000  0.0000 </r>
        <r>  0.0015  0.0006  0.0012  0.0001  0.0000  0.0000  0.0000  0.0000  0.0000 </r>
        <r>  0.0007  0.0003  0.0002  0.0000  0.0000  0.0000  0.0000  0.0000  0.0000 </r>
        <r>  0.0001  0.0001  0.0010  0.0001  0.0000  0.0000  0.0000  0.0000  0.0000 </r>
        <r>  0.0002  0.0000  0.0006  0.0002  0.0000  0.0000  0.0000  0.0000  0.0000 </r>
        <r>  0.0010  0.0000  0.0042  0.0019  0.0000  0.0000  0.0000  0.0000  0.0000 </r>
        <r>  0.0001  0.0001  0.0003  0.0023  0.0000  0.0000  0.0000  0.0000  0.0000 </r>
       </set>
       <set comment="band 35">
        <r>  0.0040  0.0004  0.0006  0.0036  0.0000  0.0000  0.0000  0.0000  0.0000 </r>
        <r>  0.0001  0.0001  0.0001  0.0008  0.0000  0.0000  0.0000  0.0000  0.0000 </r>
        <r>  0.0000  0.0009  0.0010  0.0007  0.0000  0.0000  0.0000  0.0000  0.0000 </r>
        <r>  0.0016  0.0002  0.0014  0.0026  0.0000  0.0000  0.0000  0.0000  0.0000 </r>
        <r>  0.0004  0.0003  0.0008  0.0019  0.0000  0.0000  0.0000  0.0000  0.0000 </r>
        <r>  0.0000  0.0003  0.0014  0.0006  0.0000  0.0000  0.0000  0.0000  0.0000 </r>
        <r>  0.0021  0.0001  0.0000  0.0007  0.0000  0.0000  0.0000  0.0000  0.0000 </r>
        <r>  0.0003  0.0000  0.0003  0.0005  0.0000  0.0000  0.0000  0.0000  0.0000 </r>
        <r>  0.0015  0.0002  0.0000  0.0021  0.0000  0.0000  0.0000  0.0000  0.0000 </r>
        <r>  0.0011  0.0000  0.0001  0.0000  0.0000  0.0000  0.0000  0.0000  0.0000 </r>
        <r>  0.0000  0.0001  0.0009  0.0000  0.0000  0.0000  0.0000  0.0000  0.0000 </r>
        <r>  0.0004  0.0000  0.0003  0.0000  0.0000  0.0000  0.0000  0.0000  0.0000 </r>
        <r>  0.0003  0.0002  0.0001  0.0001  0.0000  0.0000  0.0000  0.0000  0.0000 </r>
        <r>  0.0006  0.0001  0.0001  0.0001  0.0000  0.0000  0.0000  0.0000  0.0000 </r>
        <r>  0.0005  0.0004  0.0011  0.0000  0.0000  0.0000  0.0000  0.0000  0.0000 </r>
        <r>  0.0023  0.0024  0.0006  0.0011  0.0000  0.0000  0.0000  0.0000  0.0000 </r>
       </set>
       <set comment="band 36">
        <r>  0.0018  0.0085  0.0000  0.0055  0.0000  0.0000  0.0000  0.0000  0.0000 </r>
        <r>  0.0000  0.0012  0.0000  0.0007  0.0000  0.0000  0.0000  0.0000  0.0000 </r>
        <r>  0.0055  0.0098  0.0259  0.0005  0.0000  0.0000  0.0000  0.0000  0.0000 </r>
        <r>  0.0000  0.0001  0.0035  0.0023  0.0000  0.0000  0.0000  0.0000  0.0000 </r>
        <r>  0.0001  0.0002  0.0000  0.0047  0.0000  0.0000  0.0000  0.0000  0.0000 </r>
        <r>  0.0008  0.0016  0.0001  0.0016  0.0000  0.0000  0.0000  0.0000  0.0000 </r>
        <r>  0.0053  0.0040  0.0257  0.0007  0.0000  0.0000  0.0000  0.0000  0.0000 </r>
        <r>  0.0007  0.0004  0.0001  0.0001  0.0000  0.0000  0.0000  0.0000  0.0000 </r>
        <r>  0.0001  0.0000  0.0001  0.0005  0.0000  0.0000  0.0000  0.0000  0.0000 </r>
        <r>  0.0005  0.0002  0.0000  0.0000  0.0000  0.0000  0.0000  0.0000  0.0000 </r>
        <r>  0.0012  0.0001  0.0006  0.0003  0.0000  0.0000  0.0000  0.0000  0.0000 </r>
        <r>  0.0029  0.0012  0.0005  0.0002  0.0000  0.0000  0.0000  0.0000  0.0000 </r>
        <r>  0.0001  0.0000  0.0002  0.0000  0.0000  0.0000  0.0000  0.0000  0.0000 </r>
        <r>  0.0037  0.0000  0.0002  0.0001  0.0000  0.0000  0.0000  0.0000  0.0000 </r>
        <r>  0.0003  0.0022  0.0069  0.0013  0.0000  0.0000  0.0000  0.0000  0.0000 </r>
        <r>  0.0037  0.0027  0.0024  0.0001  0.0000  0.0000  0.0000  0.0000  0.0000 </r>
       </set>
      </set>
     </set>
    </set>
   </array>
  </projected>
 </calculation>
 <structure name="finalpos" >
  <crystal>
   <varray name="basis" >
    <v>       7.75760000       0.00000000       0.00000000 </v>
    <v>       0.00000000      11.70620000       0.00000000 </v>
    <v>       0.00000000       0.00000000      11.32900000 </v>
   </varray>
   <i name="volume">   1028.80934195 </i>
   <varray name="rec_basis" >
    <v>       0.12890585       0.00000000       0.00000000 </v>
    <v>       0.00000000       0.08542482       0.00000000 </v>
    <v>       0.00000000       0.00000000       0.08826904 </v>
   </varray>
  </crystal>
  <varray name="positions" >
   <v>       0.49993427       0.70908041       0.54304917 </v>
   <v>       0.49951368       0.58083494       0.54569391 </v>
   <v>       0.49906789       0.51797054       0.44229945 </v>
   <v>       0.49911070       0.39784401       0.44151732 </v>
   <v>       0.50060727       0.39789783       0.64433340 </v>
   <v>       0.49967350       0.51667442       0.65080651 </v>
   <v>       0.50016786       0.57348298       0.33505209 </v>
   <v>       0.61378663       0.74162527       0.49595569 </v>
   <v>       0.38618367       0.74191752       0.49608149 </v>
   <v>       0.50016270       0.74399629       0.63290363 </v>
   <v>       0.53390174       0.38006122       0.26374497 </v>
   <v>       0.52797117       0.25519564       0.34357926 </v>
   <v>       0.50186710       0.34672729       0.72508652 </v>
   <v>       0.49984770       0.55991433       0.73618256 </v>
   <v>       0.49210918       0.33827554       0.33670153 </v>
   <v>       0.50078969       0.33870099       0.54287973 </v>
  </varray>
 </structure>
</modeling>
