QM9                                     
           1
     7.757600    0.000000    0.000000
     0.000000   11.706200    0.000000
     0.000000    0.000000   11.329000
   C    F    H    N 
     6     1     7     2
Direct configuration=     1
   0.49996133  0.70872700  0.54288993
   0.49957461  0.58023099  0.54553800
   0.49912344  0.51803318  0.44205137
   0.49907188  0.39819924  0.44194545
   0.50067031  0.39829321  0.64379910
   0.49965195  0.51653824  0.65040162
   0.50015469  0.57222668  0.33686115
   0.61328246  0.74144470  0.49621326
   0.38671754  0.74170952  0.49633683
   0.50018047  0.74372555  0.63222703
   0.53421161  0.38003793  0.26480713
   0.52811437  0.25627445  0.34379910
   0.50183046  0.34736294  0.72403566
   0.49988398  0.55946422  0.73519287
   0.49133753  0.33866669  0.33706417
   0.50092812  0.33926466  0.54270456
Direct configuration=     2
   0.49996112  0.70843128  0.54294376
   0.49956071  0.58079813  0.54560847
   0.49909370  0.51747441  0.44320683
   0.49906570  0.39805936  0.44153763
   0.50067098  0.39821422  0.64394885
   0.49966704  0.51659000  0.65030373
   0.50016791  0.57303598  0.33535820
   0.61357364  0.74152298  0.49608927
   0.38641943  0.74179138  0.49621211
   0.50017856  0.74379691  0.63248080
   0.53433300  0.38021376  0.26437438
   0.52822035  0.25581632  0.34382709
   0.50184000  0.34715817  0.72435241
   0.49987681  0.55963960  0.73553444
   0.49115962  0.33877604  0.33725988
   0.50090617  0.33888068  0.54282939
Direct configuration=     3
   0.49996117  0.70849543  0.54293209
   0.49956372  0.58067511  0.54559318
   0.49910015  0.51759561  0.44295620
   0.49906704  0.39808970  0.44162609
   0.50067084  0.39823135  0.64391637
   0.49966377  0.51657877  0.65032496
   0.50016504  0.57286044  0.33568420
   0.61351048  0.74150600  0.49611616
   0.38648409  0.74177363  0.49623916
   0.50017897  0.74378143  0.63242575
   0.53430667  0.38017563  0.26446825
   0.52819736  0.25591569  0.34382102
   0.50183793  0.34720259  0.72428370
   0.49987837  0.55960155  0.73546035
   0.49119821  0.33875232  0.33721743
   0.50091093  0.33896397  0.54280231
Direct configuration=     4
   0.49995499  0.70864327  0.54294133
   0.49954428  0.58085498  0.54586038
   0.49910357  0.51776971  0.44270733
   0.49907643  0.39782999  0.44176655
   0.50067369  0.39809745  0.64397097
   0.49967690  0.51674815  0.65048155
   0.50016836  0.57316057  0.33527514
   0.61363065  0.74152070  0.49605054
   0.38635491  0.74179156  0.49617377
   0.50017434  0.74379439  0.63257081
   0.53423305  0.38021455  0.26430407
   0.52814710  0.25575174  0.34384333
   0.50184453  0.34704338  0.72454851
   0.49986886  0.55969599  0.73565310
   0.49135458  0.33858157  0.33688442
   0.50088851  0.33870120  0.54283543
Direct configuration=     5
   0.49995317  0.70868697  0.54294406
   0.49953853  0.58090815  0.54593935
   0.49910458  0.51782117  0.44263377
   0.49907920  0.39775323  0.44180807
   0.50067453  0.39805788  0.64398711
   0.49968079  0.51679821  0.65052784
   0.50016934  0.57324928  0.33515422
   0.61366617  0.74152505  0.49603115
   0.38631673  0.74179686  0.49615444
   0.50017297  0.74379822  0.63261369
   0.53421129  0.38022606  0.26425554
   0.52813224  0.25570328  0.34384993
   0.50184648  0.34699632  0.72462678
   0.49986605  0.55972390  0.73571008
   0.49140080  0.33853110  0.33678598
   0.50088188  0.33862353  0.54284522
Direct configuration=     6
   0.49995468  0.70897981  0.54302334
   0.49951167  0.58091754  0.54576737
   0.49909886  0.51801061  0.44242849
   0.49909107  0.39777362  0.44157871
   0.50065764  0.39801824  0.64413950
   0.49969375  0.51669767  0.65074664
   0.50015154  0.57339812  0.33503286
   0.61374258  0.74153279  0.49598315
   0.38623492  0.74181017  0.49610641
   0.50017016  0.74383363  0.63272209
   0.53416614  0.38026421  0.26401229
   0.52808201  0.25551056  0.34379758
   0.50185660  0.34687009  0.72484170
   0.49985918  0.55983250  0.73595354
   0.49156810  0.33834697  0.33673815
   0.50085587  0.33840268  0.54299543
Direct configuration=     7
   0.49995464  0.70897179  0.54302117
   0.49951240  0.58091728  0.54577208
   0.49909902  0.51800542  0.44243411
   0.49909074  0.39777307  0.44158499
   0.50065810  0.39801933  0.64413532
   0.49969339  0.51670043  0.65074064
   0.50015202  0.57339404  0.33503618
   0.61374048  0.74153258  0.49598447
   0.38623716  0.74180980  0.49610773
   0.50017024  0.74383266  0.63271912
   0.53416738  0.38026316  0.26401895
   0.52808339  0.25551584  0.34379901
   0.50185632  0.34687355  0.72483582
   0.49985937  0.55982953  0.73594687
   0.49156352  0.33835202  0.33673946
   0.50085658  0.33840873  0.54299131
Direct configuration=     8
   0.49994996  0.70905927  0.54302849
   0.49951179  0.58087876  0.54572337
   0.49909065  0.51797828  0.44233688
   0.49909105  0.39782074  0.44156679
   0.50064367  0.39795211  0.64429561
   0.49968747  0.51667151  0.65074230
   0.50014956  0.57343667  0.33504549
   0.61376658  0.74156277  0.49596756
   0.38620838  0.74184563  0.49609201
   0.50016720  0.74389727  0.63280882
   0.53405963  0.38018604  0.26392320
   0.52806205  0.25533568  0.34372247
   0.50186119  0.34682346  0.72493159
   0.49985445  0.55988428  0.73608918
   0.49176119  0.33837200  0.33669123
   0.50082994  0.33849472  0.54290226
Direct configuration=     9
   0.49994886  0.70907987  0.54303021
   0.49951165  0.58086969  0.54571189
   0.49908868  0.51797189  0.44231399
   0.49909113  0.39783197  0.44156250
   0.50064027  0.39793628  0.64433335
   0.49968607  0.51666470  0.65074269
   0.50014898  0.57344671  0.33504768
   0.61377272  0.74156988  0.49596357
   0.38620160  0.74185407  0.49608831
   0.50016648  0.74391248  0.63282994
   0.53403425  0.38016788  0.26390065
   0.52805702  0.25529326  0.34370444
   0.50186233  0.34681166  0.72495414
   0.49985329  0.55989717  0.73612269
   0.49180774  0.33837671  0.33667988
   0.50082366  0.33851497  0.54288129
Direct configuration=    10
   0.49993427  0.70908041  0.54304917
   0.49951368  0.58083494  0.54569391
   0.49906789  0.51797054  0.44229945
   0.49911070  0.39784401  0.44151732
   0.50060727  0.39789783  0.64433340
   0.49967350  0.51667442  0.65080651
   0.50016786  0.57348298  0.33505209
   0.61378663  0.74162527  0.49595569
   0.38618367  0.74191752  0.49608149
   0.50016270  0.74399629  0.63290363
   0.53390174  0.38006122  0.26374497
   0.52797117  0.25519564  0.34357926
   0.50186710  0.34672729  0.72508652
   0.49984770  0.55991433  0.73618256
   0.49210918  0.33827554  0.33670153
   0.50078969  0.33870099  0.54287973
