 vasp.5.4.4.18Apr17-6-g9f103f2a35 (build Feb 23 2022 11:43:59) gamma-only       
  
 executed on             LinuxIFC date 2024.07.19  18:51:43
 running on   64 total cores
 distrk:  each k-point on   64 cores,    1 groups
 distr:  one band on NCORES_PER_BAND=  16 cores,    4 groups


--------------------------------------------------------------------------------------------------------


 INCAR:
 POTCAR:    PAW_PBE Ru_pv 28Jan2005               
 POTCAR:    PAW_PBE N 08Apr2002                   
 POTCAR:    PAW_PBE H 15Jun2001                   
 POTCAR:    PAW_PBE Ru_pv 28Jan2005               
   VRHFIN =Ru: 4p5s4d                                                           
   LEXCH  = PE                                                                  
   EATOM  =  1873.4746 eV,  137.6965 Ry                                         
                                                                                
   TITEL  = PAW_PBE Ru_pv 28Jan2005                                             
   LULTRA =        F    use ultrasoft PP ?                                      
   IUNSCR =        1    unscreen: 0-lin 1-nonlin 2-no                           
   RPACOR =    2.170    partial core radius                                     
   POMASS =  101.070; ZVAL   =   14.000    mass and valenz                      
   RCORE  =    2.500    outmost cutoff radius                                   
   RWIGS  =    2.650; RWIGS  =    1.402    wigner-seitz radius (au A)           
   ENMAX  =  240.049; ENMIN  =  180.037 eV                                      
   ICORE  =        3    local potential                                         
   LCOR   =        T    correct aug charges                                     
   LPAW   =        T    paw PP                                                  
   EAUG   =  430.792                                                            
   DEXC   =    0.000                                                            
   RMAX   =    2.546    core radius for proj-oper                               
   RAUG   =    1.300    factor for augmentation sphere                          
   RDEP   =    2.520    radius for radial grids                                 
   RDEPT  =    2.044    core radius for aug-charge                              
                                                                                
   Atomic configuration                                                         
   11 entries                                                                   
     n  l   j            E        occ.                                          
     1  0  0.50    -21933.2692   2.0000                                         
     2  0  0.50     -3153.4096   2.0000                                         
     2  1  1.50     -2823.9548   6.0000                                         
     3  0  0.50      -555.3322   2.0000                                         
     3  1  1.50      -447.1024   6.0000                                         
     3  2  2.50      -273.0570  10.0000                                         
     4  0  0.50       -76.3589   2.0000                                         
     4  1  1.50       -46.4050   6.0000                                         
     4  2  2.50        -5.2029   7.0000                                         
     5  0  0.50        -4.2392   1.0000                                         
     4  3  2.50        -1.3606   0.0000                                         
   Description                                                                  
     l       E           TYP  RCUT    TYP  RCUT                                 
     1    -46.4050190     23  2.100                                             
     1      4.0817478     23  2.100                                             
     2     -5.2028758     23  2.500                                             
     2     -6.5634584     23  2.500                                             
     0     -4.2392192     23  2.500                                             
     0      7.0918828     23  2.500                                             
     3     -5.4423304     23  2.500                                             
  local pseudopotential read in
  partial core-charges read in
  partial kinetic energy density read in
  atomic valenz-charges read in
  non local Contribution for L=           1  read in
    real space projection operators read in
  non local Contribution for L=           1  read in
    real space projection operators read in
  non local Contribution for L=           2  read in
    real space projection operators read in
  non local Contribution for L=           2  read in
    real space projection operators read in
  non local Contribution for L=           0  read in
    real space projection operators read in
  non local Contribution for L=           0  read in
    real space projection operators read in
    PAW grid and wavefunctions read in
 
   number of l-projection  operators is LMAX  =           6
   number of lm-projection operators is LMMAX =          18
 
 POTCAR:    PAW_PBE N 08Apr2002                   
   VRHFIN =N: s2p3                                                              
   LEXCH  = PE                                                                  
   EATOM  =   264.5486 eV,   19.4438 Ry                                         
                                                                                
   TITEL  = PAW_PBE N 08Apr2002                                                 
   LULTRA =        F    use ultrasoft PP ?                                      
   IUNSCR =        1    unscreen: 0-lin 1-nonlin 2-no                           
   RPACOR =    1.200    partial core radius                                     
   POMASS =   14.001; ZVAL   =    5.000    mass and valenz                      
   RCORE  =    1.500    outmost cutoff radius                                   
   RWIGS  =    1.400; RWIGS  =    0.741    wigner-seitz radius (au A)           
   ENMAX  =  400.000; ENMIN  =  300.000 eV                                      
   ICORE  =        2    local potential                                         
   LCOR   =        T    correct aug charges                                     
   LPAW   =        T    paw PP                                                  
   EAUG   =  627.112                                                            
   DEXC   =    0.000                                                            
   RMAX   =    1.529    core radius for proj-oper                               
   RAUG   =    1.300    factor for augmentation sphere                          
   RDEP   =    1.514    radius for radial grids                                 
   RDEPT  =    1.338    core radius for aug-charge                              
                                                                                
   Atomic configuration                                                         
    4 entries                                                                   
     n  l   j            E        occ.                                          
     1  0  0.50      -384.7179   2.0000                                         
     2  0  0.50       -18.5828   2.0000                                         
     2  1  0.50        -7.0898   3.0000                                         
     3  2  1.50        -6.8029   0.0000                                         
   Description                                                                  
     l       E           TYP  RCUT    TYP  RCUT                                 
     0    -18.5828119     23  1.200                                             
     0    -13.5018863     23  1.200                                             
     1     -7.0897853     23  1.500                                             
     1      9.5240782     23  1.500                                             
     2     -6.8029130      7  1.500                                             
  local pseudopotential read in
  partial core-charges read in
  partial kinetic energy density read in
  atomic valenz-charges read in
  non local Contribution for L=           0  read in
    real space projection operators read in
  non local Contribution for L=           0  read in
    real space projection operators read in
  non local Contribution for L=           1  read in
    real space projection operators read in
  non local Contribution for L=           1  read in
    real space projection operators read in
    PAW grid and wavefunctions read in
 
   number of l-projection  operators is LMAX  =           4
   number of lm-projection operators is LMMAX =           8
 
 POTCAR:    PAW_PBE H 15Jun2001                   
   VRHFIN =H: ultrasoft test                                                    
   LEXCH  = PE                                                                  
   EATOM  =    12.4884 eV,    0.9179 Ry                                         
                                                                                
   TITEL  = PAW_PBE H 15Jun2001                                                 
   LULTRA =        F    use ultrasoft PP ?                                      
   IUNSCR =        0    unscreen: 0-lin 1-nonlin 2-no                           
   RPACOR =    0.000    partial core radius                                     
   POMASS =    1.000; ZVAL   =    1.000    mass and valenz                      
   RCORE  =    1.100    outmost cutoff radius                                   
   RWIGS  =    0.700; RWIGS  =    0.370    wigner-seitz radius (au A)           
   ENMAX  =  250.000; ENMIN  =  200.000 eV                                      
   RCLOC  =    0.701    cutoff for local pot                                    
   LCOR   =        T    correct aug charges                                     
   LPAW   =        T    paw PP                                                  
   EAUG   =  400.000                                                            
   RMAX   =    1.123    core radius for proj-oper                               
   RAUG   =    1.200    factor for augmentation sphere                          
   RDEP   =    1.112    radius for radial grids                                 
   RDEPT  =    0.926    core radius for aug-charge                              
                                                                                
   Atomic configuration                                                         
    2 entries                                                                   
     n  l   j            E        occ.                                          
     1  0  0.50        -6.4927   1.0000                                         
     2  1  0.50        -3.4015   0.0000                                         
   Description                                                                  
     l       E           TYP  RCUT    TYP  RCUT                                 
     0     -6.4927494     23  1.100                                             
     0      6.8029130     23  1.100                                             
     1     -4.0817478     23  1.100                                             
  local pseudopotential read in
  atomic valenz-charges read in
  non local Contribution for L=           0  read in
    real space projection operators read in
  non local Contribution for L=           0  read in
    real space projection operators read in
  non local Contribution for L=           1  read in
    real space projection operators read in
    PAW grid and wavefunctions read in
 
   number of l-projection  operators is LMAX  =           3
   number of lm-projection operators is LMMAX =           5
 
 Optimization of the real space projectors (new method)

 maximal supplied QI-value         = 15.12
 optimisation between [QCUT,QGAM] = [ 11.34, 22.83] = [ 36.00,145.93] Ry 
 Optimized for a Real-space Cutoff    1.43 Angstroem

   l    n(q)    QCUT    max X(q) W(low)/X(q) W(high)/X(q)  e(spline) 
   1      9    11.338     3.180    0.41E-04    0.57E-05    0.54E-07
   1      9    11.338     5.351    0.17E-03    0.94E-04    0.32E-06
   2      9    11.338    66.565    0.29E-03    0.11E-04    0.27E-06
   2      9    11.338    63.466    0.30E-03    0.11E-04    0.28E-06
   0     10    11.338    85.644    0.87E-04    0.33E-04    0.16E-06
   0     10    11.338    44.119    0.80E-04    0.30E-04    0.15E-06
 Optimization of the real space projectors (new method)

 maximal supplied QI-value         = 25.13
 optimisation between [QCUT,QGAM] = [ 11.31, 22.87] = [ 35.82,146.48] Ry 
 Optimized for a Real-space Cutoff    1.27 Angstroem

   l    n(q)    QCUT    max X(q) W(low)/X(q) W(high)/X(q)  e(spline) 
   0      9    11.310    79.467    0.75E-04    0.16E-03    0.36E-06
   0      9    11.310    66.151    0.74E-04    0.16E-03    0.36E-06
   1      8    11.310    17.416    0.35E-03    0.12E-03    0.95E-06
   1      8    11.310    12.382    0.37E-03    0.13E-03    0.98E-06
 Optimization of the real space projectors (new method)

 maximal supplied QI-value         = 34.20
 optimisation between [QCUT,QGAM] = [ 11.29, 22.57] = [ 35.68,142.71] Ry 
 Optimized for a Real-space Cutoff    1.16 Angstroem

   l    n(q)    QCUT    max X(q) W(low)/X(q) W(high)/X(q)  e(spline) 
   0      8    11.287    19.460    0.40E-03    0.73E-03    0.16E-06
   0      8    11.287    12.209    0.38E-03    0.70E-03    0.15E-06
   1      7    11.287     4.655    0.22E-03    0.25E-04    0.22E-06
  PAW_PBE Ru_pv 28Jan2005               :
 energy of atom  1       EATOM=-1873.4746
 kinetic energy error for atom=    0.0074 (will be added to EATOM!!)
  PAW_PBE N 08Apr2002                   :
 energy of atom  2       EATOM= -264.5486
 kinetic energy error for atom=    0.0138 (will be added to EATOM!!)
  PAW_PBE H 15Jun2001                   :
 energy of atom  3       EATOM=  -12.4884
 kinetic energy error for atom=    0.0020 (will be added to EATOM!!)
 
 
 POSCAR: Ru  N  H                                
  positions in cartesian coordinates
  No initial velocities read in
 exchange correlation table for  LEXCH =        8
   RHO(1)=    0.500       N(1)  =     2000
   RHO(2)=  100.500       N(2)  =     4000

 VTST: version 3.2, (02/03/18)

 CHAIN: initializing optimizer
 
 OPT: Using VASP Conjugate-Gradient optimizer
 CHAIN: Read ICHAIN            0
 
 POSCAR: Ru  N  H                                
  positions in cartesian coordinates
  No initial velocities read in
 


--------------------------------------------------------------------------------------------------------


 ion  position               nearest neighbor table
   1  0.083  0.167  0.283-  19 2.63  24 2.64   4 2.65  18 2.65  23 2.65   3 2.65  61 2.71  76 2.71
                            21 2.71  26 2.71   6 2.71  16 2.71
   2  0.084  0.166  0.449-   5 2.59  20 2.61  25 2.61   4 2.64  24 2.65  19 2.65  17 2.70  77 2.70
                            22 2.70  62 2.72   7 2.73  27 2.73
   3  0.167  0.083  0.200-  61 2.65   6 2.65   1 2.65  18 2.71  78 2.71   8 2.71  28 2.71  23 2.71
                            63 2.71
   4  0.167  0.083  0.366-   6 2.64  61 2.64  62 2.64   2 2.64   1 2.65   7 2.66  19 2.70  24 2.70
                            29 2.71   9 2.71  79 2.71  64 2.71
   5  0.167  0.076  0.528-  62 2.54   7 2.57   2 2.59  65 2.64  10 2.68  80 2.68  30 2.71  25 2.74
                            20 2.77
   6  0.333  0.167  0.283-   4 2.64   9 2.64  29 2.64  28 2.65   3 2.65   8 2.65  66 2.71  11 2.71
                            31 2.71  61 2.71  26 2.71   1 2.71
   7  0.336  0.166  0.449-   5 2.57  10 2.59  30 2.62   9 2.64  29 2.65   4 2.66  12 2.70  32 2.70
                            67 2.70   2 2.73  62 2.73  27 2.73
   8  0.417  0.083  0.200-  66 2.65  11 2.65   6 2.65   3 2.71  28 2.71  63 2.71  33 2.71  68 2.71
                            13 2.71
   9  0.418  0.084  0.366-  11 2.63  66 2.63  67 2.64   6 2.64  12 2.64   7 2.64  34 2.70  29 2.70
                            14 2.71   4 2.71  69 2.71  64 2.72
  10  0.414  0.076  0.529-  67 2.56  65 2.59   7 2.59  12 2.61  70 2.65   5 2.68  15 2.75  30 2.79
                            35 2.79
  11  0.583  0.167  0.283-   9 2.63  34 2.64  14 2.64   8 2.65  33 2.65  13 2.65  66 2.71  71 2.71
                             6 2.71  31 2.71  36 2.71  16 2.71
  12  0.584  0.165  0.449-  35 2.60  15 2.60  10 2.61  14 2.63   9 2.64  34 2.64  67 2.69  72 2.69
                             7 2.70  32 2.71  17 2.71  37 2.71
  13  0.667  0.083  0.200-  16 2.65  71 2.65  11 2.65  18 2.71  38 2.71  33 2.71  73 2.71  68 2.71
                             8 2.71
  14  0.667  0.083  0.366-  16 2.63  71 2.63  12 2.63  72 2.64  11 2.64  17 2.65  69 2.70  74 2.71
                             9 2.71  34 2.71  39 2.71  19 2.71
  15  0.673  0.086  0.529-  17 2.57  12 2.60  72 2.61  40 2.62  20 2.64  35 2.65  75 2.72  10 2.75
                            70 2.79
  16  0.833  0.167  0.283-  14 2.63  39 2.63  19 2.64  13 2.65  38 2.65  18 2.65  76 2.71  71 2.71
                            36 2.71  11 2.71  21 2.71   1 2.71
  17  0.835  0.166  0.449-  15 2.57  40 2.59  20 2.59  19 2.64  39 2.65  14 2.65   2 2.70  37 2.70
                            22 2.70  72 2.70  77 2.71  12 2.71
  18  0.917  0.083  0.200-   1 2.65  76 2.65  16 2.65   3 2.71  23 2.71  13 2.71  38 2.71  73 2.71
                            78 2.71
  19  0.918  0.083  0.366-   1 2.63  76 2.64  17 2.64  77 2.64  16 2.64   2 2.65  24 2.70   4 2.70
                            39 2.71  79 2.71  14 2.71  74 2.72
  20  0.912  0.078  0.529-  77 2.57  17 2.59  75 2.60   2 2.61  15 2.64  80 2.66  40 2.74   5 2.77
                            25 2.81
  21  0.083  0.417  0.283-  44 2.63  39 2.63  38 2.65  43 2.65  23 2.65  24 2.65   1 2.71  26 2.71
                            16 2.71  46 2.71  36 2.71  41 2.71
  22  0.085  0.416  0.450-  45 2.61  40 2.62  24 2.64  25 2.64  39 2.66  44 2.66  17 2.70   2 2.70
                            42 2.70  37 2.71  27 2.71  47 2.72
  23  0.167  0.333  0.200-   1 2.65  26 2.65  21 2.65  43 2.71  38 2.71  48 2.71  18 2.71  28 2.71
                             3 2.71
  24  0.167  0.333  0.366-   1 2.64  26 2.64  22 2.64   2 2.65  21 2.65  27 2.66  19 2.70   4 2.70
                            39 2.70  44 2.71  49 2.71  29 2.71
  25  0.175  0.333  0.531-  81 2.12  30 2.57  27 2.58   2 2.61  22 2.64  50 2.71   5 2.74  45 2.77
                            20 2.81  40 2.83
  26  0.333  0.417  0.283-  49 2.63  24 2.64  48 2.65  23 2.65  28 2.65  29 2.65  31 2.71   6 2.71
                            51 2.71   1 2.71  21 2.71  46 2.71
  27  0.336  0.418  0.449-  25 2.58  50 2.59  30 2.60  29 2.65  49 2.65  24 2.66  52 2.70  47 2.70
                            32 2.71  22 2.71   7 2.73   2 2.73
  28  0.417  0.333  0.200-  31 2.65   6 2.65  26 2.65  48 2.71  53 2.71  23 2.71   3 2.71   8 2.71
                            33 2.71
  29  0.418  0.333  0.366-  31 2.64   6 2.64  27 2.65   7 2.65  26 2.65  32 2.67  54 2.70  34 2.70
                             9 2.70  49 2.70   4 2.71  24 2.71
  30  0.411  0.332  0.531-  81 2.14  25 2.57  27 2.60   7 2.62  32 2.64   5 2.71  50 2.75  10 2.79
                            55 2.80  35 2.85
  31  0.583  0.417  0.283-  54 2.64  29 2.64  34 2.64  28 2.65  53 2.65  33 2.65  26 2.71   6 2.71
                            11 2.71  36 2.71  56 2.71  51 2.71
  32  0.585  0.416  0.450-  55 2.60  35 2.61  30 2.64  34 2.66  29 2.67  54 2.67   7 2.70  57 2.70
                            27 2.71  37 2.71  12 2.71  52 2.72
  33  0.667  0.333  0.200-  36 2.65  11 2.65  31 2.65  53 2.71  58 2.71  38 2.71  13 2.71   8 2.71
                            28 2.71
  34  0.667  0.333  0.366-  11 2.64  36 2.64  31 2.64  12 2.64  37 2.65  32 2.66  54 2.70  29 2.70
                             9 2.70  14 2.71  59 2.71  39 2.72
  35  0.674  0.331  0.530-  83 1.94  37 2.56  40 2.58  12 2.60  32 2.61  15 2.65  60 2.66  55 2.78
                            10 2.79  30 2.85
  36  0.833  0.417  0.283-  59 2.63  34 2.64  39 2.64  33 2.65  58 2.65  38 2.65  11 2.71  16 2.71
                            31 2.71  21 2.71  41 2.71  56 2.71
  37  0.835  0.415  0.449-  35 2.56  60 2.56  40 2.57  39 2.64  34 2.65  59 2.65  17 2.70  22 2.71
                            57 2.71  32 2.71  12 2.71  42 2.72
  38  0.917  0.333  0.200-  21 2.65  16 2.65  36 2.65  43 2.71  58 2.71  23 2.71  33 2.71  13 2.71
                            18 2.71
  39  0.918  0.333  0.366-  21 2.63  16 2.63  37 2.64  36 2.64  17 2.65  22 2.66  44 2.70  24 2.70
                            19 2.71  59 2.71  14 2.71  34 2.72
  40  0.912  0.331  0.530-  37 2.57  35 2.58  17 2.59  22 2.62  15 2.62  60 2.67  20 2.74  45 2.80
                            25 2.83
  41  0.083  0.667  0.283-  64 2.63  59 2.63  44 2.64  63 2.65  58 2.65  43 2.65  61 2.71  66 2.71
                            46 2.71  56 2.71  36 2.71  21 2.71
  42  0.086  0.666  0.448-  45 2.59  60 2.60  65 2.61  44 2.62  64 2.64  59 2.64  47 2.69  62 2.70
                            22 2.70  67 2.71  37 2.72  57 2.72
  43  0.167  0.583  0.200-  21 2.65  46 2.65  41 2.65  23 2.71  38 2.71  58 2.71  63 2.71  68 2.71
                            48 2.71
  44  0.167  0.582  0.366-  42 2.62  21 2.63  46 2.63  41 2.64  47 2.64  22 2.66  39 2.70  59 2.70
                            24 2.71  64 2.71  49 2.71  69 2.72
  45  0.173  0.588  0.529-  47 2.57  42 2.59  22 2.61  70 2.62  50 2.65  65 2.68  60 2.72  25 2.77
                            40 2.80
  46  0.333  0.667  0.283-  69 2.63  44 2.63  49 2.64  68 2.65  43 2.65  48 2.65  51 2.71  71 2.71
                            66 2.71  41 2.71  21 2.71  26 2.71
  47  0.335  0.667  0.448-  50 2.55  45 2.57  70 2.58  49 2.64  69 2.64  44 2.64  42 2.69  27 2.70
                            67 2.70  52 2.71  72 2.71  22 2.72
  48  0.417  0.583  0.200-  26 2.65  51 2.65  46 2.65  28 2.71  23 2.71  68 2.71  43 2.71  73 2.71
                            53 2.71
  49  0.418  0.583  0.366-  51 2.63  26 2.63  47 2.64  46 2.64  52 2.65  27 2.65  29 2.70  54 2.71
                            74 2.71  24 2.71  69 2.71  44 2.71
  50  0.418  0.589  0.528-  47 2.55  52 2.58  27 2.59  45 2.65  70 2.65  25 2.71  75 2.72  30 2.75
                            55 2.76
  51  0.583  0.667  0.283-  49 2.63  74 2.63  73 2.65  48 2.65  53 2.65  54 2.65  46 2.71  71 2.71
                            76 2.71  26 2.71  56 2.71  31 2.71
  52  0.585  0.667  0.449-  50 2.58  55 2.60  75 2.60  54 2.63  74 2.64  49 2.65  27 2.70  77 2.70
                            72 2.71  47 2.71  57 2.71  32 2.72
  53  0.667  0.583  0.200-  56 2.65  31 2.65  51 2.65  33 2.71  73 2.71  78 2.71  28 2.71  58 2.71
                            48 2.71
  54  0.667  0.582  0.366-  52 2.63  31 2.64  56 2.64  57 2.65  51 2.65  32 2.67  34 2.70  29 2.70
                            49 2.71  59 2.71  79 2.71  74 2.72
  55  0.672  0.588  0.529-  83 1.95  57 2.56  32 2.60  52 2.60  80 2.64  75 2.67  60 2.70  50 2.76
                            35 2.78  30 2.80
  56  0.833  0.667  0.283-  79 2.63  54 2.64  59 2.64  78 2.65  53 2.65  58 2.65  76 2.71  51 2.71
                            61 2.71  31 2.71  41 2.71  36 2.71
  57  0.834  0.665  0.449-  55 2.56  60 2.59  80 2.59  59 2.64  54 2.65  79 2.66  62 2.70  32 2.70
                            37 2.71  52 2.71  77 2.72  42 2.72
  58  0.917  0.583  0.200-  41 2.65  36 2.65  56 2.65  38 2.71  43 2.71  33 2.71  63 2.71  78 2.71
                            53 2.71
  59  0.918  0.583  0.366-  41 2.63  36 2.63  57 2.64  42 2.64  56 2.64  37 2.65  44 2.70  64 2.70
                            79 2.71  39 2.71  54 2.71  34 2.71
  60  0.918  0.579  0.529-  83 1.87  37 2.56  57 2.59  42 2.60  35 2.66  40 2.67  55 2.70  45 2.72
                            80 2.77  65 2.78
  61  0.083  0.917  0.283-  79 2.63  64 2.64   4 2.64   3 2.65  78 2.65  63 2.65   1 2.71   6 2.71
                            41 2.71  66 2.71  56 2.71  76 2.71
  62  0.084  0.915  0.448-   5 2.54  80 2.61  65 2.61  64 2.63  79 2.64   4 2.64  57 2.70  42 2.70
                            77 2.71  67 2.71   2 2.72   7 2.73
  63  0.167  0.833  0.200-  41 2.65  66 2.65  61 2.65  78 2.71  58 2.71  43 2.71  68 2.71   8 2.71
                             3 2.71
  64  0.167  0.833  0.366-  41 2.63  66 2.63  62 2.63  61 2.64  42 2.64  67 2.65  59 2.70  79 2.70
                            44 2.71   4 2.71  69 2.72   9 2.72
  65  0.175  0.836  0.529-  67 2.56  10 2.59  70 2.60  62 2.61  42 2.61   5 2.64  45 2.68  60 2.78
                            80 2.81
  66  0.333  0.917  0.283-  64 2.63   9 2.63  69 2.64   8 2.65  63 2.65  68 2.65   6 2.71  11 2.71
                            71 2.71  46 2.71  41 2.71  61 2.71
  67  0.335  0.916  0.448-  65 2.56  10 2.56  70 2.58  69 2.63   9 2.64  64 2.65  12 2.69  47 2.70
                             7 2.70  72 2.70  42 2.71  62 2.71
  68  0.417  0.833  0.200-  46 2.65  71 2.65  66 2.65  43 2.71  48 2.71  63 2.71   8 2.71  13 2.71
                            73 2.71
  69  0.418  0.833  0.366-  71 2.62  67 2.63  46 2.63  47 2.64  66 2.64  72 2.65  74 2.70  14 2.70
                            49 2.71   9 2.71  64 2.72  44 2.72
  70  0.413  0.831  0.529-  67 2.58  47 2.58  65 2.60  45 2.62  72 2.62  10 2.65  50 2.65  15 2.79
                            75 2.80
  71  0.583  0.917  0.283-  69 2.62  14 2.63  74 2.64  13 2.65  68 2.65  73 2.65  11 2.71  66 2.71
                            46 2.71  16 2.71  51 2.71  76 2.71
  72  0.585  0.917  0.449-  15 2.61  75 2.61  70 2.62  74 2.64  14 2.64  69 2.65  12 2.69  17 2.70
                            67 2.70  52 2.71  77 2.71  47 2.71
  73  0.667  0.833  0.200-  51 2.65  76 2.65  71 2.65  53 2.71  78 2.71  18 2.71  48 2.71  13 2.71
                            68 2.71
  74  0.667  0.833  0.366-  76 2.63  51 2.63  52 2.64  71 2.64  72 2.64  77 2.65  69 2.70  49 2.71
                            14 2.71  79 2.71  54 2.72  19 2.72
  75  0.674  0.835  0.529-  77 2.56  20 2.60  52 2.60  72 2.61  80 2.62  55 2.67  50 2.72  15 2.72
                            70 2.80
  76  0.833  0.917  0.283-  74 2.63  19 2.64  79 2.64  73 2.65  18 2.65  78 2.65  16 2.71   1 2.71
                            51 2.71  56 2.71  71 2.71  61 2.71
  77  0.835  0.916  0.449-  75 2.56  80 2.57  20 2.57  79 2.64  19 2.64  74 2.65   2 2.70  52 2.70
                            62 2.71  72 2.71  17 2.71  57 2.72
  78  0.917  0.833  0.200-  56 2.65  61 2.65  76 2.65  63 2.71   3 2.71  58 2.71  53 2.71  73 2.71
                            18 2.71
  79  0.917  0.833  0.366-  61 2.63  56 2.63  77 2.64  62 2.64  76 2.64  57 2.66  64 2.70  59 2.71
                             4 2.71  19 2.71  54 2.71  74 2.71
  80  0.914  0.833  0.529-  77 2.57  57 2.59  62 2.61  75 2.62  55 2.64  20 2.66   5 2.68  60 2.77
                            65 2.81
  81  0.290  0.329  0.597-  82 1.02  84 1.02  25 2.12  30 2.14
  82  0.328  0.416  0.621-  81 1.02
  83  0.759  0.502  0.572-  60 1.87  35 1.94  55 1.95
  84  0.250  0.241  0.621-  81 1.02
 

IMPORTANT INFORMATION: All symmetrisations will be switched off!
NOSYMM: (Re-)initialisation of all symmetry stuff for point group C_1.

 
 
 KPOINTS: K-Spacing Value to Generate K-Mesh: 0.00

Automatic generation of k-mesh.
Space group operators:
 irot       det(A)        alpha          n_x          n_y          n_z        tau_x        tau_y        tau_z
    1     1.000000     0.000000     1.000000     0.000000     0.000000     0.000000     0.000000     0.000000
 
 Subroutine IBZKPT returns following result:
 ===========================================
 
 Found      1 irreducible k-points:
 
 Following reciprocal coordinates:
            Coordinates               Weight
  0.000000  0.000000  0.000000      1.000000
 
 Following cartesian coordinates:
            Coordinates               Weight
  0.000000  0.000000  0.000000      1.000000
 


--------------------------------------------------------------------------------------------------------




 Dimension of arrays:
   k-points           NKPTS =      1   k-points in BZ     NKDIM =      1   number of bands    NBANDS=    676
   number of dos      NEDOS =    301   number of ions     NIONS =     84
   non local maximal  LDIM  =      6   non local SUM 2l+1 LMDIM =     18
   total plane-waves  NPLWV = 504000
   max r-space proj   IRMAX =   2424   max aug-charges    IRDMAX=   9101
   dimension x,y,z NGX =    60 NGY =   60 NGZ =  140
   dimension x,y,z NGXF=   120 NGYF=  120 NGZF=  280
   support grid    NGXF=   120 NGYF=  120 NGZF=  280
   ions per type =              80   1   3
   NGX,Y,Z   is equivalent  to a cutoff of   9.21,  9.21,  9.07 a.u.
   NGXF,Y,Z  is equivalent  to a cutoff of  18.42, 18.42, 18.13 a.u.

 SYSTEM =  Bulk                                    
 POSCAR =  Ru  N  H                                

 Startparameter for this run:
   NWRITE =      2    write-flag & timer
   PREC   = normal    normal or accurate (medium, high low for compatibility)
   ISTART =      1    job   : 0-new  1-cont  2-samecut
   ICHARG =      1    charge: 1-file 2-atom 10-const
   ISPIN  =      1    spin polarized calculation?
   LNONCOLLINEAR =      F non collinear calculations
   LSORBIT =      F    spin-orbit coupling
   INIWAV =      1    electr: 0-lowe 1-rand  2-diag
   LASPH  =      F    aspherical Exc in radial PAW
   METAGGA=      F    non-selfconsistent MetaGGA calc.

 Electronic Relaxation 1
   ENCUT  =  500.0 eV  36.75 Ry    6.06 a.u.  19.75 19.75 46.80*2*pi/ulx,y,z
   ENINI  =  500.0     initial cutoff
   ENAUG  =  627.1 eV  augmentation charge cutoff
   NELM   =    150;   NELMIN=  6; NELMDL=  0     # of ELM steps 
   EDIFF  = 0.1E-04   stopping-criterion for ELM
   LREAL  =      T    real-space projection
   NLSPLINE    = F    spline interpolate recip. space projectors
   LCOMPAT=      F    compatible to vasp.4.4
   GGA_COMPAT  = T    GGA compatible to vasp.4.4-vasp.4.6
   LMAXPAW     = -100 max onsite density
   LMAXMIX     =    2 max onsite mixed and CHGCAR
   VOSKOWN=      0    Vosko Wilk Nusair interpolation
   ROPT   =   -0.00050  -0.00050  -0.00050
 Ionic relaxation
   EDIFFG = -.5E-01   stopping-criterion for IOM
   NSW    =    300    number of steps for IOM
   NBLOCK =      1;   KBLOCK =    300    inner block; outer block 
   IBRION =      2    ionic relax: 0-MD 1-quasi-New 2-CG
   NFREE  =      1    steps in history (QN), initial steepest desc. (CG)
   ISIF   =      2    stress and relaxation
   IWAVPR =     11    prediction:  0-non 1-charg 2-wave 3-comb
   ISYM   =      0    0-nonsym 1-usesym 2-fastsym
   LCORR  =      T    Harris-Foulkes like correction to forces

   POTIM  = 0.2000    time-step for ionic-motion
   TEIN   =    0.0    initial temperature
   TEBEG  =    0.0;   TEEND  =   0.0 temperature during run
   SMASS  =  -3.00    Nose mass-parameter (am)
   estimated Nose-frequenzy (Omega)   =  0.10E-29 period in steps =****** mass=  -0.268E-26a.u.
   SCALEE = 1.0000    scale energy and forces
   NPACO  =    256;   APACO  = 16.0  distance and # of slots for P.C.
   PSTRESS=    0.0 pullay stress

  Mass of Ions in am
   POMASS = 101.07 14.00  1.00
  Ionic Valenz
   ZVAL   =  14.00  5.00  1.00
  Atomic Wigner-Seitz radii
   RWIGS  =  -1.00 -1.00 -1.00
  virtual crystal weights 
   VCA    =   1.00  1.00  1.00
   NELECT =    1128.0000    total number of electrons
   NUPDOWN=      -1.0000    fix difference up-down

 DOS related values:
   EMIN   =  10.00;   EMAX   =-10.00  energy-range for DOS
   EFERMI =   0.00
   ISMEAR =     1;   SIGMA  =   0.10  broadening in eV -4-tet -1-fermi 0-gaus

 Electronic relaxation 2 (details)
   IALGO  =     38    algorithm
   LDIAG  =      T    sub-space diagonalisation (order eigenvalues)
   LSUBROT=      F    optimize rotation matrix (better conditioning)
   TURBO    =      0    0=normal 1=particle mesh
   IRESTART =      0    0=no restart 2=restart with 2 vectors
   NREBOOT  =      0    no. of reboots
   NMIN     =      0    reboot dimension
   EREF     =   0.00    reference energy to select bands
   IMIX   =      4    mixing-type and parameters
     AMIX     =   0.40;   BMIX     =  1.00
     AMIX_MAG =   1.60;   BMIX_MAG =  1.00
     AMIN     =   0.10
     WC   =   100.;   INIMIX=   1;  MIXPRE=   1;  MAXMIX= -45

 Intra band minimization:
   WEIMIN = 0.0010     energy-eigenvalue tresh-hold
   EBREAK =  0.37E-08  absolut break condition
   DEPER  =   0.30     relativ break condition  

   TIME   =   0.40     timestep for ELM

  volume/ion in A,a.u.               =      31.05       209.53
  Fermi-wavevector in a.u.,A,eV,Ry     =   1.238047  2.339569 20.854454  1.532759
  Thomas-Fermi vector in A             =   2.372588
 
 Write flags
   LWAVE        =      T    write WAVECAR
   LDOWNSAMPLE  =      F    k-point downsampling of WAVECAR
   LCHARG       =      T    write CHGCAR
   LVTOT        =      F    write LOCPOT, total local potential
   LVHAR        =      F    write LOCPOT, Hartree potential only
   LELF         =      F    write electronic localiz. function (ELF)
   LORBIT       =      0    0 simple, 1 ext, 2 COOP (PROOUT), +10 PAW based schemes


 Dipole corrections
   LMONO  =      F    monopole corrections only (constant potential shift)
   LDIPOL =      F    correct potential (dipole corrections)
   IDIPOL =      0    1-x, 2-y, 3-z, 4-all directions 
   EPSILON=  1.0000000 bulk dielectric constant

 Exchange correlation treatment:
   GGA     =    --    GGA type
   LEXCH   =     8    internal setting for exchange type
   VOSKOWN=      0    Vosko Wilk Nusair interpolation
   LHFCALC =     F    Hartree Fock is set to
   LHFONE  =     F    Hartree Fock one center treatment
   AEXX    =    0.0000 exact exchange contribution

 Linear response parameters
   LEPSILON=     F    determine dielectric tensor
   LRPA    =     F    only Hartree local field effects (RPA)
   LNABLA  =     F    use nabla operator in PAW spheres
   LVEL    =     F    velocity operator in full k-point grid
   LINTERFAST=   F  fast interpolation
   KINTER  =     0    interpolate to denser k-point grid
   CSHIFT  =0.1000    complex shift for real part using Kramers Kronig
   OMEGAMAX=  -1.0    maximum frequency
   DEG_THRESHOLD= 0.2000000E-02 threshold for treating states as degnerate
   RTIME   =   -0.100 relaxation time in fs
  (WPLASMAI=    0.000 imaginary part of plasma frequency in eV, 0.658/RTIME)
   DFIELD  = 0.0000000 0.0000000 0.0000000 field for delta impulse in time
 
 Orbital magnetization related:
   ORBITALMAG=     F  switch on orbital magnetization
   LCHIMAG   =     F  perturbation theory with respect to B field
   DQ        =  0.001000  dq finite difference perturbation B field
   LLRAUG    =     F  two centre corrections for induced B field



--------------------------------------------------------------------------------------------------------


 conjugate gradient relaxation of ions
   using selective dynamics as specified on POSCAR
   WARNING: If single coordinates had been selected the selection of coordinates
            is made according to the corresponding   d i r e c t   coordinates!
            Don't support selection of single cartesian coordinates -- sorry ...
  !
 charge density and potential will be updated during run
 non-spin polarized calculation
 Variant of blocked Davidson
 Davidson routine will perform the subspace rotation
 perform sub-space diagonalisation
    after iterative eigenvector-optimisation
 modified Broyden-mixing scheme, WC =      100.0
 initial mixing is a Kerker type mixing with AMIX =  0.4000 and BMIX =      1.0000
 Hartree-type preconditioning will be used
 using additional bands          112
 real space projection scheme for non local part
 use partial core corrections
 calculate Harris-corrections to forces 
   (improved forces if not selfconsistent)
 use gradient corrections 
 use of overlap-Matrix (Vanderbilt PP)
 Methfessel and Paxton  Order N= 1 SIGMA  =   0.10


--------------------------------------------------------------------------------------------------------


  energy-cutoff  :      500.00
  volume of cell :     2608.09
      direct lattice vectors                 reciprocal lattice vectors
    10.831299782  0.000000000  0.000000000     0.092325023  0.053303877  0.000000000
    -5.415649891  9.380180767  0.000000000     0.000000000  0.106607754  0.000000000
     0.000000000  0.000000000 25.670299530     0.000000000  0.000000000  0.038955525

  length of vectors
    10.831299782 10.831299782 25.670299530     0.106607754  0.106607754  0.038955525


 
 old parameters found on file WAVECAR:
  energy-cutoff  :      500.00
  volume of cell :     2608.09
      direct lattice vectors                 reciprocal lattice vectors
    10.831299782  0.000000000  0.000000000     0.092325023  0.053303877  0.000000000
    -5.415649891  9.380180767  0.000000000     0.000000000  0.106607754  0.000000000
     0.000000000  0.000000000 25.670299530     0.000000000  0.000000000  0.038955525

  length of vectors

 
 k-points in units of 2pi/SCALE and weight: K-Spacing Value to Generate K-Mesh: 0.00
   0.00000000  0.00000000  0.00000000       1.000
 
 k-points in reciprocal lattice and weights: K-Spacing Value to Generate K-Mesh: 0.00
   0.00000000  0.00000000  0.00000000       1.000
 
 position of ions in fractional coordinates (direct lattice) 
   0.08333000  0.16666999  0.28312999
   0.08393758  0.16574869  0.44927460
   0.16666999  0.08333000  0.20000000
   0.16738726  0.08326571  0.36603963
   0.16666551  0.07556259  0.52807238
   0.33333001  0.16666999  0.28312999
   0.33573378  0.16609872  0.44930224
   0.41666999  0.08333000  0.20000000
   0.41769071  0.08359463  0.36568079
   0.41399960  0.07574949  0.52939115
   0.58332998  0.16666999  0.28312999
   0.58408497  0.16498049  0.44871667
   0.66667002  0.08333000  0.20000000
   0.66732400  0.08294572  0.36573072
   0.67308315  0.08618496  0.52935569
   0.83332998  0.16666999  0.28312999
   0.83513747  0.16629783  0.44886572
   0.91667002  0.08333000  0.20000000
   0.91814068  0.08343281  0.36573274
   0.91217854  0.07750556  0.52941127
   0.08333000  0.41666999  0.28312999
   0.08459747  0.41550091  0.44951365
   0.16666999  0.33333001  0.20000000
   0.16724599  0.33269496  0.36614119
   0.17482727  0.33267126  0.53079672
   0.33333001  0.41666999  0.28312999
   0.33581133  0.41783197  0.44930102
   0.41666999  0.33333001  0.20000000
   0.41778146  0.33313533  0.36616281
   0.41119883  0.33150713  0.53136552
   0.58332998  0.41666999  0.28312999
   0.58466707  0.41561296  0.45022517
   0.66667002  0.33333001  0.20000000
   0.66700279  0.33299175  0.36600689
   0.67422033  0.33138500  0.52959499
   0.83332998  0.41666999  0.28312999
   0.83471833  0.41522291  0.44898080
   0.91667002  0.33333001  0.20000000
   0.91784924  0.33312378  0.36577877
   0.91228261  0.33069261  0.52970425
   0.08333000  0.66667002  0.28312999
   0.08583659  0.66581123  0.44834416
   0.16666999  0.58332998  0.20000000
   0.16687736  0.58235577  0.36567775
   0.17297185  0.58771270  0.52923697
   0.33333001  0.66667002  0.28312999
   0.33479170  0.66667148  0.44837839
   0.41666999  0.58332998  0.20000000
   0.41764068  0.58278894  0.36565181
   0.41803467  0.58874334  0.52832753
   0.58332998  0.66667002  0.28312999
   0.58505476  0.66700081  0.44856535
   0.66667002  0.58332998  0.20000000
   0.66715976  0.58232273  0.36603636
   0.67248734  0.58762885  0.52942484
   0.83332998  0.66667002  0.28312999
   0.83431303  0.66512227  0.44905677
   0.91667002  0.58332998  0.20000000
   0.91754803  0.58296418  0.36583727
   0.91760017  0.57940396  0.52866306
   0.08333000  0.91667002  0.28312999
   0.08398303  0.91458420  0.44848820
   0.16666999  0.83332998  0.20000000
   0.16715995  0.83271400  0.36552705
   0.17490395  0.83577161  0.52894971
   0.33333001  0.91667002  0.28312999
   0.33546732  0.91639176  0.44821778
   0.41666999  0.83332998  0.20000000
   0.41816716  0.83332443  0.36556968
   0.41290900  0.83099902  0.52901175
   0.58332998  0.91667002  0.28312999
   0.58549285  0.91699274  0.44870638
   0.66667002  0.83332998  0.20000000
   0.66707984  0.83298711  0.36566574
   0.67392149  0.83523973  0.52921054
   0.83332998  0.91667002  0.28312999
   0.83492019  0.91612528  0.44852463
   0.91667002  0.83332998  0.20000000
   0.91749135  0.83283982  0.36560802
   0.91441953  0.83310758  0.52901754
   0.28967397  0.32901408  0.59728473
   0.32758364  0.41569423  0.62136941
   0.75850076  0.50157140  0.57227221
   0.24957545  0.24077406  0.62076358
 
 position of ions in cartesian coordinates  (Angst):
  -0.00005415  1.56339468  7.26803165
   0.01151615  1.55475270 11.53301344
   1.35396659  0.78165044  5.13405998
   1.36208371  0.78104737  9.39634699
   1.39598356  0.70879072 13.55577625
   2.70777087  1.56339468  7.26803165
   2.73690074  1.55803598 11.53372315
   4.06179153  0.78165044  5.13405998
   4.07141407  0.78413278  9.38713529
   4.07392112  0.71054387 13.58962951
   5.41559550  1.56339468  7.26803165
   5.43292283  1.54754679 11.51869131
   6.76961679  0.78165044  5.13405998
   6.77878127  0.77804583  9.38841704
   6.82361780  0.80843054 13.58871906
   8.12342045  1.56339468  7.26803165
   8.14501344  1.55990370 11.52251760
   9.47744174  0.78165044  5.13405998
   9.49281401  0.78261488  9.38846901
   9.46033625  0.72701614 13.59014592
  -1.35396662  3.90843987  7.26803165
  -1.33390695  3.89747369 11.53914997
   0.00005408  3.12669570  5.13405998
   0.00973199  3.12073889  9.39895403
   0.09197550  3.12051651 13.62571072
   1.35385840  3.90843987  7.26803165
   1.37444159  3.91933937 11.53369164
   2.70787902  3.12669570  5.13405998
   2.72097196  3.12486957  9.39950895
   2.65849120  3.10959684 13.64031213
   4.06168303  3.90843987  7.26803165
   4.08189010  3.89852466 11.55741488
   5.41570428  3.12669570  5.13405998
   5.42114043  3.12352285  9.39550647
   5.50801744  3.10845116 13.59486213
   6.76950797  3.90843987  7.26803165
   6.79238255  3.89486595 11.52547162
   8.12352923  3.12669570  5.13405998
   8.13741854  3.12476129  9.38965061
   8.09029110  3.10195642 13.59766684
  -2.70787925  6.25348534  7.26803165
  -2.67607873  6.24542973 11.50912885
  -1.35385824  5.47174062  5.13405998
  -1.34633620  5.46260237  9.38705727
  -1.30933629  5.51285138 13.58567165
  -0.00005423  6.25348534  7.26803165
   0.01576996  6.25349900 11.51000757
   1.35396671  5.47174062  5.13405998
   1.36741059  5.46666558  9.38639145
   1.33943099  5.52251897 13.56232607
   2.70777040  6.25348534  7.26803165
   2.72466065  6.25658821 11.51480696
   4.06179196  5.47174062  5.13405998
   4.07255138  5.46229248  9.39626295
   4.10151983  5.51206481 13.59049435
   5.41559534  6.25348534  7.26803165
   5.43462526  6.23896709 11.52742170
   6.76961691  5.47174062  5.13405998
   6.78110785  5.46830941  9.39115230
   6.80095357  5.43491387 13.57093909
  -4.06179173  8.59853053  7.26803165
  -4.04342247  8.57896516 11.51282644
  -2.70777071  7.81678581  5.13405998
  -2.69912802  7.81100787  9.38318881
  -2.63180938  7.83968882 13.57829748
  -1.35396671  8.59853053  7.26803165
  -1.32930983  8.59592039 11.50588473
   0.00005423  7.81678581  5.13405998
   0.01630052  7.81673383  9.38428310
  -0.02805861  7.79492100 13.57989003
   1.35385793  8.59853053  7.26803165
   1.37553696  8.60155763 11.51842714
   2.70787949  7.81678581  5.13405998
   2.71417520  7.81356969  9.38674895
   2.77607970  7.83469968 13.58499316
   4.06168287  8.59853053  7.26803165
   4.08185709  8.59342070 11.51376161
   5.41570444  7.81678581  5.13405998
   5.42725502  7.81218802  9.38526745
   5.39253313  7.81469967 13.58003881
   1.35572052  3.08621158 15.33247801
   1.29690218  3.89928703 15.95073877
   5.49921402  4.70483042 14.69039895
   1.39927854  2.25850423 15.93518697
 


--------------------------------------------------------------------------------------------------------


 use parallel FFT for orbitals z direction half grid
 k-point  1 :   0.0000 0.0000 0.0000  plane waves:   33083

 maximum and minimum number of plane-waves per node :      2073     2063

 maximum number of plane-waves:     33083
 maximum index in each direction: 
   IXMAX=   19   IYMAX=   19   IZMAX=   46
   IXMIN=  -19   IYMIN=  -19   IZMIN=    0


 real space projection operators:
  total allocation   :      26070.52 KBytes
  max/ min on nodes  :       1954.68       1134.43


 parallel 3D FFT for wavefunctions:
    minimum data exchange during FFTs selected (reduces bandwidth)
 parallel 3D FFT for charge:
    minimum data exchange during FFTs selected (reduces bandwidth)


 total amount of memory used by VASP MPI-rank0    46337. kBytes
=======================================================================

   base      :      30000. kBytes
   nonlr-proj:       1907. kBytes
   fftplans  :       2965. kBytes
   grid      :       5671. kBytes
   one-center:         46. kBytes
   wavefun   :       5748. kBytes
 
     INWAV:  cpu time    0.4658: real time    0.8016
 Broyden mixing: mesh for mixing (old mesh)
   NGX = 39   NGY = 39   NGZ = 93
  (NGX  =120   NGY  =120   NGZ  =280)
  gives a total of 141453 points

 initial charge density was supplied:
 number of electron    1128.0000764 magnetization 
 keeping initial charge density in first step


--------------------------------------------------------------------------------------------------------


 Maximum index for non-local projection operator          213
 Maximum index for augmentation-charges          376 (set IRDMAX)


--------------------------------------------------------------------------------------------------------


 First call to EWALD:  gamma=   0.129
 Maximum number of real-space cells 4x 4x 2
 Maximum number of reciprocal cells 2x 2x 5

    FEWALD:  cpu time    0.0026: real time    0.0026


--------------------------------------- Iteration      1(   1)  ---------------------------------------


    POTLOK:  cpu time    0.0392: real time    0.0445
    SETDIJ:  cpu time    0.0069: real time    0.0076
     EDDAV:  cpu time    2.1442: real time    2.2193
       DOS:  cpu time    0.0010: real time    0.0013
    CHARGE:  cpu time    0.0469: real time    0.0472
    MIXING:  cpu time    0.0018: real time    0.0034
    --------------------------------------------
      LOOP:  cpu time    2.2401: real time    2.3235

 eigenvalue-minimisations  :  1464
 total energy-change (2. order) :-0.7120853E+03  (-0.1927209E+03)
 number of electron    1128.0000619 magnetization 
 augmentation part      412.2549627 magnetization 

 Broyden mixing:
  rms(total) = 0.17074E+01    rms(broyden)= 0.17073E+01
  rms(prec ) = 0.17561E+01
  weight for this iteration     100.00

 Free energy of the ion-electron system (eV)
  ---------------------------------------------------
  alpha Z        PSCENC =      4286.69391093
  Ewald energy   TEWEN  =    712093.63901498
  -Hartree energ DENC   =   -853187.67122093
  -exchange      EXHF   =         0.00000000
  -V(xc)+E(xc)   XCENC  =      4583.26330022
  PAW double counting   =    141924.67670675  -141136.69897957
  entropy T*S    EENTRO =         0.05319112
  eigenvalues    EBANDS =    -19455.41495374
  atomic energy  EATOM  =    150179.37374676
  Solvation  Ediel_sol  =         0.00000000
  ---------------------------------------------------
  free energy    TOTEN  =      -712.08528348 eV

  energy without entropy =     -712.13847460  energy(sigma->0) =     -712.10301385


--------------------------------------------------------------------------------------------------------




--------------------------------------- Iteration      1(   2)  ---------------------------------------


    POTLOK:  cpu time    0.0354: real time    0.0360
    SETDIJ:  cpu time    0.0047: real time    0.0047
     EDDAV:  cpu time    2.6234: real time    2.6394
       DOS:  cpu time    0.0006: real time    0.0005
    CHARGE:  cpu time    0.0421: real time    0.0424
    MIXING:  cpu time    0.0013: real time    0.0164
    --------------------------------------------
      LOOP:  cpu time    2.7074: real time    2.7394

 eigenvalue-minimisations  :  1928
 total energy-change (2. order) :-0.2314855E+02  (-0.2344331E+02)
 number of electron    1128.0000602 magnetization 
 augmentation part      411.8123308 magnetization 

 Broyden mixing:
  rms(total) = 0.18614E+01    rms(broyden)= 0.18606E+01
  rms(prec ) = 0.26815E+01
  weight for this iteration     100.00

 eigenvalues of (default mixing * dielectric matrix)
  average eigenvalue GAMMA=   0.4929
  0.4929

 Free energy of the ion-electron system (eV)
  ---------------------------------------------------
  alpha Z        PSCENC =      4286.69391093
  Ewald energy   TEWEN  =    712093.63901498
  -Hartree energ DENC   =   -853285.55300361
  -exchange      EXHF   =         0.00000000
  -V(xc)+E(xc)   XCENC  =      4582.48314045
  PAW double counting   =    142769.67639365  -141981.22192128
  entropy T*S    EENTRO =        -0.03645380
  eigenvalues    EBANDS =    -19380.28865733
  atomic energy  EATOM  =    150179.37374676
  Solvation  Ediel_sol  =         0.00000000
  ---------------------------------------------------
  free energy    TOTEN  =      -735.23382925 eV

  energy without entropy =     -735.19737545  energy(sigma->0) =     -735.22167798


--------------------------------------------------------------------------------------------------------




--------------------------------------- Iteration      1(   3)  ---------------------------------------


    POTLOK:  cpu time    0.0327: real time    0.0333
    SETDIJ:  cpu time    0.0045: real time    0.0045
     EDDAV:  cpu time    2.3510: real time    2.3658
       DOS:  cpu time    0.0005: real time    0.0005
    CHARGE:  cpu time    0.0410: real time    0.0413
    MIXING:  cpu time    0.0013: real time    0.0013
    --------------------------------------------
      LOOP:  cpu time    2.4310: real time    2.4466

 eigenvalue-minimisations  :  1708
 total energy-change (2. order) :-0.3301550E+02  (-0.2954116E+01)
 number of electron    1128.0000658 magnetization 
 augmentation part      413.2332442 magnetization 

 Broyden mixing:
  rms(total) = 0.48278E+01    rms(broyden)= 0.48277E+01
  rms(prec ) = 0.86588E+01
  weight for this iteration     100.00

 eigenvalues of (default mixing * dielectric matrix)
  average eigenvalue GAMMA=   0.3193
  0.5595  0.0791

 Free energy of the ion-electron system (eV)
  ---------------------------------------------------
  alpha Z        PSCENC =      4286.69391093
  Ewald energy   TEWEN  =    712093.63901498
  -Hartree energ DENC   =   -853207.30599875
  -exchange      EXHF   =         0.00000000
  -V(xc)+E(xc)   XCENC  =      4582.71919411
  PAW double counting   =    142729.43667038  -141941.63750068
  entropy T*S    EENTRO =        -0.10074814
  eigenvalues    EBANDS =    -19491.06762008
  atomic energy  EATOM  =    150179.37374676
  Solvation  Ediel_sol  =         0.00000000
  ---------------------------------------------------
  free energy    TOTEN  =      -768.24933049 eV

  energy without entropy =     -768.14858236  energy(sigma->0) =     -768.21574778


--------------------------------------------------------------------------------------------------------




--------------------------------------- Iteration      1(   4)  ---------------------------------------


    POTLOK:  cpu time    0.0327: real time    0.0332
    SETDIJ:  cpu time    0.0046: real time    0.0046
     EDDAV:  cpu time    2.4719: real time    2.4875
       DOS:  cpu time    0.0006: real time    0.0006
    CHARGE:  cpu time    0.0438: real time    0.0440
    MIXING:  cpu time    0.0014: real time    0.0014
    --------------------------------------------
      LOOP:  cpu time    2.5549: real time    2.5712

 eigenvalue-minimisations  :  1800
 total energy-change (2. order) : 0.3582026E+02  (-0.1558654E+01)
 number of electron    1128.0000614 magnetization 
 augmentation part      412.3388239 magnetization 

 Broyden mixing:
  rms(total) = 0.11059E+01    rms(broyden)= 0.11056E+01
  rms(prec ) = 0.13057E+01
  weight for this iteration     100.00

 eigenvalues of (default mixing * dielectric matrix)
  average eigenvalue GAMMA=   0.3376
  0.4701  0.4701  0.0726

 Free energy of the ion-electron system (eV)
  ---------------------------------------------------
  alpha Z        PSCENC =      4286.69391093
  Ewald energy   TEWEN  =    712093.63901498
  -Hartree energ DENC   =   -853148.96097729
  -exchange      EXHF   =         0.00000000
  -V(xc)+E(xc)   XCENC  =      4583.17422736
  PAW double counting   =    142757.07575019  -141969.01062341
  entropy T*S    EENTRO =         0.02727774
  eigenvalues    EBANDS =    -19514.44139806
  atomic energy  EATOM  =    150179.37374676
  Solvation  Ediel_sol  =         0.00000000
  ---------------------------------------------------
  free energy    TOTEN  =      -732.42907080 eV

  energy without entropy =     -732.45634854  energy(sigma->0) =     -732.43816338


--------------------------------------------------------------------------------------------------------




--------------------------------------- Iteration      1(   5)  ---------------------------------------


    POTLOK:  cpu time    0.0321: real time    0.0326
    SETDIJ:  cpu time    0.0047: real time    0.0048
     EDDAV:  cpu time    2.2643: real time    2.2784
       DOS:  cpu time    0.0005: real time    0.0005
    CHARGE:  cpu time    0.0430: real time    0.0432
    MIXING:  cpu time    0.0018: real time    0.0019
    --------------------------------------------
      LOOP:  cpu time    2.3465: real time    2.3614

 eigenvalue-minimisations  :  1616
 total energy-change (2. order) : 0.2423006E+00  (-0.3888667E+00)
 number of electron    1128.0000619 magnetization 
 augmentation part      411.9555321 magnetization 

 Broyden mixing:
  rms(total) = 0.10706E+01    rms(broyden)= 0.10706E+01
  rms(prec ) = 0.13433E+01
  weight for this iteration     100.00

 eigenvalues of (default mixing * dielectric matrix)
  average eigenvalue GAMMA=   0.3842
  0.6431  0.6431  0.0717  0.1789

 Free energy of the ion-electron system (eV)
  ---------------------------------------------------
  alpha Z        PSCENC =      4286.69391093
  Ewald energy   TEWEN  =    712093.63901498
  -Hartree energ DENC   =   -853267.80877832
  -exchange      EXHF   =         0.00000000
  -V(xc)+E(xc)   XCENC  =      4583.27960784
  PAW double counting   =    142831.53482565  -142042.98147725
  entropy T*S    EENTRO =         0.04926049
  eigenvalues    EBANDS =    -19395.96688132
  atomic energy  EATOM  =    150179.37374676
  Solvation  Ediel_sol  =         0.00000000
  ---------------------------------------------------
  free energy    TOTEN  =      -732.18677025 eV

  energy without entropy =     -732.23603074  energy(sigma->0) =     -732.20319041


--------------------------------------------------------------------------------------------------------




--------------------------------------- Iteration      1(   6)  ---------------------------------------


    POTLOK:  cpu time    0.0347: real time    0.0352
    SETDIJ:  cpu time    0.0047: real time    0.0047
     EDDAV:  cpu time    2.1815: real time    2.1953
       DOS:  cpu time    0.0006: real time    0.0006
    CHARGE:  cpu time    0.0442: real time    0.0445
    MIXING:  cpu time    0.0018: real time    0.0018
    --------------------------------------------
      LOOP:  cpu time    2.2676: real time    2.2820

 eigenvalue-minimisations  :  1560
 total energy-change (2. order) : 0.3279768E+00  (-0.1752101E+00)
 number of electron    1128.0000609 magnetization 
 augmentation part      412.0726871 magnetization 

 Broyden mixing:
  rms(total) = 0.98690E+00    rms(broyden)= 0.98686E+00
  rms(prec ) = 0.12428E+01
  weight for this iteration     100.00

 eigenvalues of (default mixing * dielectric matrix)
  average eigenvalue GAMMA=   0.3868
  0.7366  0.7366  0.2424  0.0714  0.1468

 Free energy of the ion-electron system (eV)
  ---------------------------------------------------
  alpha Z        PSCENC =      4286.69391093
  Ewald energy   TEWEN  =    712093.63901498
  -Hartree energ DENC   =   -853164.56243582
  -exchange      EXHF   =         0.00000000
  -V(xc)+E(xc)   XCENC  =      4583.45740329
  PAW double counting   =    142832.18683990  -142043.52215180
  entropy T*S    EENTRO =         0.06634345
  eigenvalues    EBANDS =    -19499.19146516
  atomic energy  EATOM  =    150179.37374676
  Solvation  Ediel_sol  =         0.00000000
  ---------------------------------------------------
  free energy    TOTEN  =      -731.85879347 eV

  energy without entropy =     -731.92513692  energy(sigma->0) =     -731.88090795


--------------------------------------------------------------------------------------------------------




--------------------------------------- Iteration      1(   7)  ---------------------------------------


    POTLOK:  cpu time    0.0316: real time    0.0320
    SETDIJ:  cpu time    0.0044: real time    0.0044
     EDDAV:  cpu time    2.1799: real time    2.1938
       DOS:  cpu time    0.0006: real time    0.0006
    CHARGE:  cpu time    0.0422: real time    0.0424
    MIXING:  cpu time    0.0015: real time    0.0016
    --------------------------------------------
      LOOP:  cpu time    2.2603: real time    2.2747

 eigenvalue-minimisations  :  1568
 total energy-change (2. order) : 0.8011999E+00  (-0.1193408E+00)
 number of electron    1128.0000616 magnetization 
 augmentation part      411.9407700 magnetization 

 Broyden mixing:
  rms(total) = 0.43489E+00    rms(broyden)= 0.43485E+00
  rms(prec ) = 0.47670E+00
  weight for this iteration     100.00

 eigenvalues of (default mixing * dielectric matrix)
  average eigenvalue GAMMA=   0.4895
  0.9752  0.9752  0.5619  0.2154  0.0714  0.1381

 Free energy of the ion-electron system (eV)
  ---------------------------------------------------
  alpha Z        PSCENC =      4286.69391093
  Ewald energy   TEWEN  =    712093.63901498
  -Hartree energ DENC   =   -853224.85819083
  -exchange      EXHF   =         0.00000000
  -V(xc)+E(xc)   XCENC  =      4583.42426931
  PAW double counting   =    142801.63443406  -142013.01057611
  entropy T*S    EENTRO =         0.01739178
  eigenvalues    EBANDS =    -19437.97159440
  atomic energy  EATOM  =    150179.37374676
  Solvation  Ediel_sol  =         0.00000000
  ---------------------------------------------------
  free energy    TOTEN  =      -731.05759354 eV

  energy without entropy =     -731.07498531  energy(sigma->0) =     -731.06339079


--------------------------------------------------------------------------------------------------------




--------------------------------------- Iteration      1(   8)  ---------------------------------------


    POTLOK:  cpu time    0.0318: real time    0.0323
    SETDIJ:  cpu time    0.0045: real time    0.0045
     EDDAV:  cpu time    2.3499: real time    2.3652
       DOS:  cpu time    0.0005: real time    0.0005
    CHARGE:  cpu time    0.0415: real time    0.0417
    MIXING:  cpu time    0.0017: real time    0.0017
    --------------------------------------------
      LOOP:  cpu time    2.4299: real time    2.4459

 eigenvalue-minimisations  :  1688
 total energy-change (2. order) :-0.1326910E+00  (-0.7422767E-01)
 number of electron    1128.0000615 magnetization 
 augmentation part      412.0266376 magnetization 

 Broyden mixing:
  rms(total) = 0.51531E+00    rms(broyden)= 0.51530E+00
  rms(prec ) = 0.61178E+00
  weight for this iteration     100.00

 eigenvalues of (default mixing * dielectric matrix)
  average eigenvalue GAMMA=   0.5230
  1.1586  1.1586  0.6979  0.0714  0.2475  0.1910  0.1358

 Free energy of the ion-electron system (eV)
  ---------------------------------------------------
  alpha Z        PSCENC =      4286.69391093
  Ewald energy   TEWEN  =    712093.63901498
  -Hartree energ DENC   =   -853196.35274427
  -exchange      EXHF   =         0.00000000
  -V(xc)+E(xc)   XCENC  =      4583.34047520
  PAW double counting   =    142611.51719805  -141823.40374221
  entropy T*S    EENTRO =         0.03012816
  eigenvalues    EBANDS =    -19466.02827212
  atomic energy  EATOM  =    150179.37374676
  Solvation  Ediel_sol  =         0.00000000
  ---------------------------------------------------
  free energy    TOTEN  =      -731.19028452 eV

  energy without entropy =     -731.22041268  energy(sigma->0) =     -731.20032724


--------------------------------------------------------------------------------------------------------




--------------------------------------- Iteration      1(   9)  ---------------------------------------


    POTLOK:  cpu time    0.0324: real time    0.0329
    SETDIJ:  cpu time    0.0045: real time    0.0045
     EDDAV:  cpu time    2.2406: real time    2.2547
       DOS:  cpu time    0.0005: real time    0.0006
    CHARGE:  cpu time    0.0418: real time    0.0420
    MIXING:  cpu time    0.0021: real time    0.0021
    --------------------------------------------
      LOOP:  cpu time    2.3220: real time    2.3368

 eigenvalue-minimisations  :  1624
 total energy-change (2. order) : 0.1914543E+00  (-0.5979764E-01)
 number of electron    1128.0000616 magnetization 
 augmentation part      412.0436087 magnetization 

 Broyden mixing:
  rms(total) = 0.26003E+00    rms(broyden)= 0.26001E+00
  rms(prec ) = 0.30014E+00
  weight for this iteration     100.00

 eigenvalues of (default mixing * dielectric matrix)
  average eigenvalue GAMMA=   0.5414
  1.2475  1.2475  0.7175  0.5147  0.0714  0.2240  0.1360  0.1727

 Free energy of the ion-electron system (eV)
  ---------------------------------------------------
  alpha Z        PSCENC =      4286.69391093
  Ewald energy   TEWEN  =    712093.63901498
  -Hartree energ DENC   =   -853210.39456765
  -exchange      EXHF   =         0.00000000
  -V(xc)+E(xc)   XCENC  =      4583.24907927
  PAW double counting   =    142390.51066718  -141602.86879962
  entropy T*S    EENTRO =         0.02882221
  eigenvalues    EBANDS =    -19451.23070427
  atomic energy  EATOM  =    150179.37374676
  Solvation  Ediel_sol  =         0.00000000
  ---------------------------------------------------
  free energy    TOTEN  =      -730.99883023 eV

  energy without entropy =     -731.02765243  energy(sigma->0) =     -731.00843763


--------------------------------------------------------------------------------------------------------




--------------------------------------- Iteration      1(  10)  ---------------------------------------


    POTLOK:  cpu time    0.0317: real time    0.0322
    SETDIJ:  cpu time    0.0045: real time    0.0045
     EDDAV:  cpu time    2.2826: real time    2.2971
       DOS:  cpu time    0.0006: real time    0.0006
    CHARGE:  cpu time    0.0440: real time    0.0444
    MIXING:  cpu time    0.0017: real time    0.0017
    --------------------------------------------
      LOOP:  cpu time    2.3651: real time    2.3805

 eigenvalue-minimisations  :  1656
 total energy-change (2. order) : 0.1031271E-02  (-0.2829427E-01)
 number of electron    1128.0000617 magnetization 
 augmentation part      412.0619685 magnetization 

 Broyden mixing:
  rms(total) = 0.20877E+00    rms(broyden)= 0.20876E+00
  rms(prec ) = 0.24629E+00
  weight for this iteration     100.00

 eigenvalues of (default mixing * dielectric matrix)
  average eigenvalue GAMMA=   0.6194
  2.0475  0.9460  0.9460  0.7858  0.0714  0.2633  0.2127  0.1358  0.1662

 Free energy of the ion-electron system (eV)
  ---------------------------------------------------
  alpha Z        PSCENC =      4286.69391093
  Ewald energy   TEWEN  =    712093.63901498
  -Hartree energ DENC   =   -853205.80349985
  -exchange      EXHF   =         0.00000000
  -V(xc)+E(xc)   XCENC  =      4583.28886992
  PAW double counting   =    142259.79546369  -141472.19356047
  entropy T*S    EENTRO =         0.01774082
  eigenvalues    EBANDS =    -19455.80948573
  atomic energy  EATOM  =    150179.37374676
  Solvation  Ediel_sol  =         0.00000000
  ---------------------------------------------------
  free energy    TOTEN  =      -730.99779896 eV

  energy without entropy =     -731.01553977  energy(sigma->0) =     -731.00371256


--------------------------------------------------------------------------------------------------------




--------------------------------------- Iteration      1(  11)  ---------------------------------------


    POTLOK:  cpu time    0.0344: real time    0.0349
    SETDIJ:  cpu time    0.0045: real time    0.0046
     EDDAV:  cpu time    3.0346: real time    3.0511
       DOS:  cpu time    0.0005: real time    0.0005
    CHARGE:  cpu time    0.0420: real time    0.0422
    MIXING:  cpu time    0.0018: real time    0.0018
    --------------------------------------------
      LOOP:  cpu time    3.1178: real time    3.1351

 eigenvalue-minimisations  :  1624
 total energy-change (2. order) :-0.8027526E-02  (-0.1555854E-01)
 number of electron    1128.0000617 magnetization 
 augmentation part      412.0493351 magnetization 

 Broyden mixing:
  rms(total) = 0.17494E+00    rms(broyden)= 0.17493E+00
  rms(prec ) = 0.20838E+00
  weight for this iteration     100.00

 eigenvalues of (default mixing * dielectric matrix)
  average eigenvalue GAMMA=   0.6051
  2.2434  0.9693  0.9693  0.7796  0.0714  0.2942  0.2275  0.1356  0.1949  0.1656

 Free energy of the ion-electron system (eV)
  ---------------------------------------------------
  alpha Z        PSCENC =      4286.69391093
  Ewald energy   TEWEN  =    712093.63901498
  -Hartree energ DENC   =   -853211.47261878
  -exchange      EXHF   =         0.00000000
  -V(xc)+E(xc)   XCENC  =      4583.41446830
  PAW double counting   =    142097.80932012  -141310.03584242
  entropy T*S    EENTRO =         0.02361228
  eigenvalues    EBANDS =    -19450.45143864
  atomic energy  EATOM  =    150179.37374676
  Solvation  Ediel_sol  =         0.00000000
  ---------------------------------------------------
  free energy    TOTEN  =      -731.00582648 eV

  energy without entropy =     -731.02943876  energy(sigma->0) =     -731.01369724


--------------------------------------------------------------------------------------------------------




--------------------------------------- Iteration      1(  12)  ---------------------------------------


    POTLOK:  cpu time    0.0327: real time    0.0399
    SETDIJ:  cpu time    0.0045: real time    0.0045
     EDDAV:  cpu time    2.2592: real time    2.2736
       DOS:  cpu time    0.0006: real time    0.0006
    CHARGE:  cpu time    0.0418: real time    0.0420
    MIXING:  cpu time    0.0022: real time    0.0022
    --------------------------------------------
      LOOP:  cpu time    2.3410: real time    2.3628

 eigenvalue-minimisations  :  1640
 total energy-change (2. order) : 0.3102921E-01  (-0.5266667E-02)
 number of electron    1128.0000616 magnetization 
 augmentation part      412.0317347 magnetization 

 Broyden mixing:
  rms(total) = 0.45204E-01    rms(broyden)= 0.45194E-01
  rms(prec ) = 0.53592E-01
  weight for this iteration     100.00

 eigenvalues of (default mixing * dielectric matrix)
  average eigenvalue GAMMA=   0.6180
  2.3052  1.0329  1.0329  0.7185  0.6386  0.0714  0.2868  0.2201  0.1357  0.1925
  0.1636

 Free energy of the ion-electron system (eV)
  ---------------------------------------------------
  alpha Z        PSCENC =      4286.69391093
  Ewald energy   TEWEN  =    712093.63901498
  -Hartree energ DENC   =   -853214.27813157
  -exchange      EXHF   =         0.00000000
  -V(xc)+E(xc)   XCENC  =      4583.46132498
  PAW double counting   =    142063.68979284  -141275.82084305
  entropy T*S    EENTRO =         0.02319590
  eigenvalues    EBANDS =    -19447.75680903
  atomic energy  EATOM  =    150179.37374676
  Solvation  Ediel_sol  =         0.00000000
  ---------------------------------------------------
  free energy    TOTEN  =      -730.97479727 eV

  energy without entropy =     -730.99799317  energy(sigma->0) =     -730.98252923


--------------------------------------------------------------------------------------------------------




--------------------------------------- Iteration      1(  13)  ---------------------------------------


    POTLOK:  cpu time    0.0318: real time    0.0323
    SETDIJ:  cpu time    0.0045: real time    0.0045
     EDDAV:  cpu time    2.2311: real time    2.2449
       DOS:  cpu time    0.0005: real time    0.0005
    CHARGE:  cpu time    0.0418: real time    0.0420
    MIXING:  cpu time    0.0020: real time    0.0020
    --------------------------------------------
      LOOP:  cpu time    2.3118: real time    2.3262

 eigenvalue-minimisations  :  1616
 total energy-change (2. order) :-0.2460330E-02  (-0.1548566E-02)
 number of electron    1128.0000616 magnetization 
 augmentation part      412.0208253 magnetization 

 Broyden mixing:
  rms(total) = 0.56375E-01    rms(broyden)= 0.56373E-01
  rms(prec ) = 0.66807E-01
  weight for this iteration     100.00

 eigenvalues of (default mixing * dielectric matrix)
  average eigenvalue GAMMA=   0.6351
  2.3839  1.1605  1.1605  0.8113  0.8113  0.0714  0.2932  0.1357  0.2319  0.2145
  0.1840  0.1635

 Free energy of the ion-electron system (eV)
  ---------------------------------------------------
  alpha Z        PSCENC =      4286.69391093
  Ewald energy   TEWEN  =    712093.63901498
  -Hartree energ DENC   =   -853213.73668383
  -exchange      EXHF   =         0.00000000
  -V(xc)+E(xc)   XCENC  =      4583.49596050
  PAW double counting   =    142052.50267310  -141264.54162097
  entropy T*S    EENTRO =         0.02124675
  eigenvalues    EBANDS =    -19448.42550580
  atomic energy  EATOM  =    150179.37374676
  Solvation  Ediel_sol  =         0.00000000
  ---------------------------------------------------
  free energy    TOTEN  =      -730.97725760 eV

  energy without entropy =     -730.99850435  energy(sigma->0) =     -730.98433985


--------------------------------------------------------------------------------------------------------




--------------------------------------- Iteration      1(  14)  ---------------------------------------


    POTLOK:  cpu time    0.0314: real time    0.0318
    SETDIJ:  cpu time    0.0045: real time    0.0045
     EDDAV:  cpu time    2.2529: real time    2.2667
       DOS:  cpu time    0.0006: real time    0.0006
    CHARGE:  cpu time    0.0458: real time    0.0460
    MIXING:  cpu time    0.0029: real time    0.0029
    --------------------------------------------
      LOOP:  cpu time    2.3381: real time    2.3525

 eigenvalue-minimisations  :  1632
 total energy-change (2. order) : 0.1897994E-02  (-0.8627822E-03)
 number of electron    1128.0000616 magnetization 
 augmentation part      412.0119724 magnetization 

 Broyden mixing:
  rms(total) = 0.30795E-01    rms(broyden)= 0.30793E-01
  rms(prec ) = 0.36164E-01
  weight for this iteration     100.00

 eigenvalues of (default mixing * dielectric matrix)
  average eigenvalue GAMMA=   0.6170
  2.4080  1.1987  1.1987  0.8140  0.8140  0.0714  0.3042  0.3042  0.2299  0.1357
  0.1984  0.1631  0.1809

 Free energy of the ion-electron system (eV)
  ---------------------------------------------------
  alpha Z        PSCENC =      4286.69391093
  Ewald energy   TEWEN  =    712093.63901498
  -Hartree energ DENC   =   -853213.43562195
  -exchange      EXHF   =         0.00000000
  -V(xc)+E(xc)   XCENC  =      4583.52396756
  PAW double counting   =    142038.83011328  -141250.79199200
  entropy T*S    EENTRO =         0.02177827
  eigenvalues    EBANDS =    -19448.83027743
  atomic energy  EATOM  =    150179.37374676
  Solvation  Ediel_sol  =         0.00000000
  ---------------------------------------------------
  free energy    TOTEN  =      -730.97535961 eV

  energy without entropy =     -730.99713788  energy(sigma->0) =     -730.98261903


--------------------------------------------------------------------------------------------------------




--------------------------------------- Iteration      1(  15)  ---------------------------------------


    POTLOK:  cpu time    0.0351: real time    0.0356
    SETDIJ:  cpu time    0.0050: real time    0.0051
     EDDAV:  cpu time    2.2188: real time    2.2320
       DOS:  cpu time    0.0007: real time    0.0006
    CHARGE:  cpu time    0.0441: real time    0.0444
    MIXING:  cpu time    0.0021: real time    0.0021
    --------------------------------------------
      LOOP:  cpu time    2.3058: real time    2.3198

 eigenvalue-minimisations  :  1584
 total energy-change (2. order) : 0.3715386E-03  (-0.2966406E-03)
 number of electron    1128.0000616 magnetization 
 augmentation part      412.0087423 magnetization 

 Broyden mixing:
  rms(total) = 0.19261E-01    rms(broyden)= 0.19260E-01
  rms(prec ) = 0.22862E-01
  weight for this iteration     100.00

 eigenvalues of (default mixing * dielectric matrix)
  average eigenvalue GAMMA=   0.6493
  2.4513  1.3238  1.3238  0.8460  0.8460  0.8142  0.0714  0.2960  0.2448  0.1357
  0.2146  0.1914  0.1631  0.1682

 Free energy of the ion-electron system (eV)
  ---------------------------------------------------
  alpha Z        PSCENC =      4286.69391093
  Ewald energy   TEWEN  =    712093.63901498
  -Hartree energ DENC   =   -853213.49691079
  -exchange      EXHF   =         0.00000000
  -V(xc)+E(xc)   XCENC  =      4583.52378662
  PAW double counting   =    142032.81195030  -141244.77254669
  entropy T*S    EENTRO =         0.02099153
  eigenvalues    EBANDS =    -19448.76893170
  atomic energy  EATOM  =    150179.37374676
  Solvation  Ediel_sol  =         0.00000000
  ---------------------------------------------------
  free energy    TOTEN  =      -730.97498807 eV

  energy without entropy =     -730.99597960  energy(sigma->0) =     -730.98198524


--------------------------------------------------------------------------------------------------------




--------------------------------------- Iteration      1(  16)  ---------------------------------------


    POTLOK:  cpu time    0.0323: real time    0.0327
    SETDIJ:  cpu time    0.0044: real time    0.0044
     EDDAV:  cpu time    2.2056: real time    2.2192
       DOS:  cpu time    0.0006: real time    0.0006
    CHARGE:  cpu time    0.0422: real time    0.0424
    MIXING:  cpu time    0.0021: real time    0.0021
    --------------------------------------------
      LOOP:  cpu time    2.2872: real time    2.3014

 eigenvalue-minimisations  :  1592
 total energy-change (2. order) :-0.4604023E-03  (-0.1278713E-03)
 number of electron    1128.0000616 magnetization 
 augmentation part      412.0099756 magnetization 

 Broyden mixing:
  rms(total) = 0.17976E-01    rms(broyden)= 0.17975E-01
  rms(prec ) = 0.20939E-01
  weight for this iteration     100.00

 eigenvalues of (default mixing * dielectric matrix)
  average eigenvalue GAMMA=   0.6503
  2.4931  1.4331  1.4331  0.9034  0.9034  0.8544  0.0714  0.2862  0.2862  0.2311
  0.1357  0.2117  0.1860  0.1654  0.1606

 Free energy of the ion-electron system (eV)
  ---------------------------------------------------
  alpha Z        PSCENC =      4286.69391093
  Ewald energy   TEWEN  =    712093.63901498
  -Hartree energ DENC   =   -853213.32987677
  -exchange      EXHF   =         0.00000000
  -V(xc)+E(xc)   XCENC  =      4583.51026945
  PAW double counting   =    142016.91526300  -141228.90880181
  entropy T*S    EENTRO =         0.02151518
  eigenvalues    EBANDS =    -19448.89049019
  atomic energy  EATOM  =    150179.37374676
  Solvation  Ediel_sol  =         0.00000000
  ---------------------------------------------------
  free energy    TOTEN  =      -730.97544847 eV

  energy without entropy =     -730.99696365  energy(sigma->0) =     -730.98262020


--------------------------------------------------------------------------------------------------------




--------------------------------------- Iteration      1(  17)  ---------------------------------------


    POTLOK:  cpu time    0.0320: real time    0.0325
    SETDIJ:  cpu time    0.0045: real time    0.0045
     EDDAV:  cpu time    2.2344: real time    2.2482
       DOS:  cpu time    0.0006: real time    0.0006
    CHARGE:  cpu time    0.0432: real time    0.0434
    MIXING:  cpu time    0.0022: real time    0.0022
    --------------------------------------------
      LOOP:  cpu time    2.3169: real time    2.3315

 eigenvalue-minimisations  :  1616
 total energy-change (2. order) : 0.8426514E-04  (-0.6643873E-04)
 number of electron    1128.0000616 magnetization 
 augmentation part      412.0110013 magnetization 

 Broyden mixing:
  rms(total) = 0.69576E-02    rms(broyden)= 0.69567E-02
  rms(prec ) = 0.79543E-02
  weight for this iteration     100.00

 eigenvalues of (default mixing * dielectric matrix)
  average eigenvalue GAMMA=   0.6603
  2.5285  1.4953  1.4953  0.9300  0.9300  0.8039  0.6813  0.0714  0.3010  0.2547
  0.1357  0.2232  0.2046  0.1865  0.1639  0.1600

 Free energy of the ion-electron system (eV)
  ---------------------------------------------------
  alpha Z        PSCENC =      4286.69391093
  Ewald energy   TEWEN  =    712093.63901498
  -Hartree energ DENC   =   -853213.18746256
  -exchange      EXHF   =         0.00000000
  -V(xc)+E(xc)   XCENC  =      4583.50048080
  PAW double counting   =    142005.41955521  -141217.43779765
  entropy T*S    EENTRO =         0.02084033
  eigenvalues    EBANDS =    -19448.99765301
  atomic energy  EATOM  =    150179.37374676
  Solvation  Ediel_sol  =         0.00000000
  ---------------------------------------------------
  free energy    TOTEN  =      -730.97536420 eV

  energy without entropy =     -730.99620453  energy(sigma->0) =     -730.98231098


--------------------------------------------------------------------------------------------------------




--------------------------------------- Iteration      1(  18)  ---------------------------------------


    POTLOK:  cpu time    0.0321: real time    0.0326
    SETDIJ:  cpu time    0.0045: real time    0.0045
     EDDAV:  cpu time    2.1356: real time    2.1486
       DOS:  cpu time    0.0006: real time    0.0006
    CHARGE:  cpu time    0.0442: real time    0.0444
    MIXING:  cpu time    0.0028: real time    0.0028
    --------------------------------------------
      LOOP:  cpu time    2.2198: real time    2.2335

 eigenvalue-minimisations  :  1528
 total energy-change (2. order) :-0.1879310E-03  (-0.3115982E-04)
 number of electron    1128.0000616 magnetization 
 augmentation part      412.0121284 magnetization 

 Broyden mixing:
  rms(total) = 0.83228E-02    rms(broyden)= 0.83225E-02
  rms(prec ) = 0.96088E-02
  weight for this iteration     100.00

 eigenvalues of (default mixing * dielectric matrix)
  average eigenvalue GAMMA=   0.6846
  2.5958  1.6310  1.6310  1.0186  1.0186  0.9064  0.9064  0.0714  0.2983  0.2703
  0.2373  0.1357  0.2126  0.1975  0.1830  0.1639  0.1595

 Free energy of the ion-electron system (eV)
  ---------------------------------------------------
  alpha Z        PSCENC =      4286.69391093
  Ewald energy   TEWEN  =    712093.63901498
  -Hartree energ DENC   =   -853213.10804086
  -exchange      EXHF   =         0.00000000
  -V(xc)+E(xc)   XCENC  =      4583.49610899
  PAW double counting   =    141996.87160202  -141208.90326810
  entropy T*S    EENTRO =         0.02081088
  eigenvalues    EBANDS =    -19449.05943773
  atomic energy  EATOM  =    150179.37374676
  Solvation  Ediel_sol  =         0.00000000
  ---------------------------------------------------
  free energy    TOTEN  =      -730.97555213 eV

  energy without entropy =     -730.99636302  energy(sigma->0) =     -730.98248910


--------------------------------------------------------------------------------------------------------




--------------------------------------- Iteration      1(  19)  ---------------------------------------


[...]
   0.159E+02 0.518E+01 -.319E+04   -.159E+02 -.505E+01 0.319E+04   0.256E-02 -.134E+00 0.283E+00   -.622E-01 -.479E-02 0.271E+00
   0.105E+00 -.436E+00 0.655E+04   -.148E+00 0.341E+00 -.654E+04   0.711E-01 -.458E-01 -.433E+01   0.217E-01 -.266E-01 -.110E+00
   0.813E+01 0.342E+01 0.785E+02   -.802E+01 -.347E+01 -.787E+02   -.782E-01 0.624E-01 0.755E-01   -.237E-01 -.258E-01 0.936E-01
   0.518E+02 0.130E+03 -.654E+04   -.516E+02 -.129E+03 0.653E+04   -.966E-01 -.108E+01 0.438E+01   -.102E+00 -.260E-01 0.138E+00
   -.334E+01 0.291E+00 0.332E+04   0.344E+01 -.210E+00 -.332E+04   -.254E-01 0.686E-03 -.590E+00   -.786E-02 -.191E-01 -.100E+00
   -.214E+02 -.376E+00 -.318E+04   0.214E+02 0.428E+00 0.318E+04   0.538E-01 -.407E-01 0.339E+00   -.516E-01 -.215E-01 0.222E+00
   -.234E+00 -.215E+00 0.655E+04   0.283E+00 0.236E+00 -.654E+04   -.235E-01 0.340E-01 -.444E+01   -.109E-01 -.439E-01 -.116E+00
   -.135E+02 -.639E+01 0.481E+02   0.135E+02 0.641E+01 -.482E+02   0.137E-01 0.214E-01 0.279E-01   -.153E-01 -.375E-01 0.792E-01
   -.472E+02 -.339E+02 -.650E+04   0.466E+02 0.334E+02 0.649E+04   0.725E+00 0.516E+00 0.448E+01   -.227E-01 -.332E-01 0.143E+00
   -.727E+00 0.357E+01 0.332E+04   0.687E+00 -.369E+01 -.332E+04   0.294E-01 0.200E-01 -.657E+00   -.135E-01 0.400E-01 -.101E+00
   0.113E+02 0.184E+02 -.322E+04   -.109E+02 -.187E+02 0.322E+04   -.427E+00 0.223E+00 -.348E-01   0.201E-01 0.445E-01 0.235E+00
   -.401E+00 0.338E+00 0.655E+04   0.290E+00 -.504E+00 -.654E+04   -.103E+00 0.555E-01 -.460E+01   -.267E-01 0.300E-01 -.118E+00
   0.729E+00 0.128E+02 0.603E+02   -.730E+00 -.127E+02 -.605E+02   -.304E-02 -.425E-01 0.112E+00   0.195E-01 0.307E-01 0.106E+00
   0.217E+03 0.391E+02 -.635E+04   -.217E+03 -.388E+02 0.635E+04   -.159E-01 -.373E+00 0.171E+01   0.694E-01 0.623E-01 0.131E+00
   -.158E+01 -.147E+00 0.332E+04   0.161E+01 0.355E-01 -.332E+04   -.899E-03 0.120E+00 -.696E+00   0.131E-01 0.487E-01 -.697E-01
   -.120E+02 -.119E+01 -.315E+04   0.119E+02 0.979E+00 0.315E+04   0.282E-01 0.177E+00 0.366E+00   0.566E-01 0.328E-01 0.263E+00
   -.666E-01 0.122E+00 0.655E+04   0.778E-01 -.157E+00 -.654E+04   0.162E+00 0.613E-01 -.472E+01   0.728E-02 0.415E-01 -.108E+00
   -.628E+01 -.114E+01 0.555E+02   0.621E+01 0.114E+01 -.558E+02   0.532E-01 -.178E-01 0.121E+00   0.110E-01 0.180E-01 0.131E+00
   -.220E+03 -.220E+02 -.634E+04   0.219E+03 0.217E+02 0.633E+04   0.252E+00 0.296E+00 0.190E+01   0.433E-01 0.255E-01 0.114E+00
   0.401E+00 0.316E+01 0.332E+04   -.343E+00 -.319E+01 -.332E+04   0.975E-03 -.358E-01 -.680E+00   -.119E-02 0.503E-01 -.698E-01
   -.257E+01 0.331E+01 -.326E+04   0.221E+01 -.369E+01 0.326E+04   0.397E+00 0.376E+00 -.517E-01   -.338E-01 -.890E-02 0.263E+00
   0.121E+00 0.514E+00 0.655E+04   -.301E+00 -.330E+00 -.654E+04   -.493E-03 -.707E-01 -.446E+01   0.147E-01 0.300E-01 -.110E+00
   0.116E+01 -.205E+01 0.530E+02   -.116E+01 0.206E+01 -.532E+02   0.405E-01 -.394E-01 0.264E-01   -.270E-01 0.224E-01 0.120E+00
   0.839E+02 -.192E+02 -.651E+04   -.832E+02 0.184E+02 0.651E+04   -.679E+00 0.790E+00 0.407E+01   -.848E-01 -.166E-01 0.128E+00
   0.163E+01 0.319E+01 0.332E+04   -.168E+01 -.321E+01 -.332E+04   0.236E-01 -.683E-01 -.803E+00   0.141E-02 0.326E-01 -.837E-01
   0.200E+01 -.289E+02 -.320E+04   -.195E+01 0.290E+02 0.320E+04   0.271E-01 -.614E-01 0.426E+00   -.649E-01 0.628E-02 0.233E+00
   0.388E+00 0.531E+00 0.655E+04   -.843E-01 -.458E+00 -.654E+04   -.859E-01 -.707E-01 -.439E+01   0.476E-02 0.131E-01 -.116E+00
   0.419E+01 -.448E+01 0.655E+02   -.412E+01 0.442E+01 -.658E+02   -.576E-01 0.349E-01 0.160E+00   -.183E-01 0.255E-01 0.897E-01
   -.782E+02 -.850E+02 -.651E+04   0.779E+02 0.845E+02 0.650E+04   0.334E+00 0.503E+00 0.475E+01   -.562E-01 0.118E-01 0.147E+00
   0.173E+01 -.532E+00 0.332E+04   -.178E+01 0.542E+00 -.332E+04   0.752E-01 0.110E-01 -.795E+00   -.579E-02 0.521E-02 -.959E-01
   0.397E+02 0.120E+02 -.318E+04   -.397E+02 -.121E+02 0.318E+04   -.733E-01 0.854E-01 0.281E+00   0.561E-02 0.368E-01 0.210E+00
   -.247E+00 0.169E+00 0.655E+04   0.134E+00 -.305E+00 -.654E+04   0.608E-01 0.714E-01 -.426E+01   0.310E-02 0.227E-01 -.110E+00
   0.877E+01 0.214E+01 0.849E+02   -.871E+01 -.211E+01 -.851E+02   -.646E-01 -.500E-01 0.857E-01   0.647E-02 0.309E-01 0.880E-01
   0.104E+03 0.552E+02 -.652E+04   -.104E+03 -.546E+02 0.651E+04   -.264E+00 -.639E+00 0.453E+01   0.456E-01 0.496E-01 0.134E+00
   -.486E+01 0.601E+00 0.332E+04   0.492E+01 -.616E+00 -.332E+04   -.230E-01 -.596E-01 -.677E+00   0.647E-02 0.103E-01 -.988E-01
   -.194E+02 -.155E+02 -.315E+04   0.192E+02 0.153E+02 0.315E+04   0.211E+00 0.986E-01 0.354E+00   0.191E-01 0.370E-01 0.247E+00
   -.266E+00 0.600E+00 0.655E+04   0.351E+00 -.393E+00 -.654E+04   -.536E-01 -.779E-01 -.446E+01   0.211E-02 0.477E-01 -.107E+00
   -.586E+01 -.242E+01 0.582E+02   0.580E+01 0.236E+01 -.583E+02   0.449E-01 0.268E-01 0.265E-01   0.176E-01 0.273E-01 0.117E+00
   -.442E+02 -.823E+02 -.641E+04   0.441E+02 0.835E+02 0.640E+04   0.112E+00 -.114E+01 0.508E+01   0.170E-01 0.545E-02 0.127E+00
   0.259E+01 0.242E+01 0.332E+04   -.266E+01 -.249E+01 -.332E+04   0.345E-01 -.104E-01 -.665E+00   0.138E-01 0.108E-01 -.948E-01
   0.150E+02 0.994E+01 -.316E+04   -.148E+02 -.994E+01 0.316E+04   -.239E+00 0.189E-01 0.309E+00   -.143E-01 -.997E-02 0.239E+00
   0.235E+00 0.594E-01 0.655E+04   -.183E+00 -.415E+00 -.654E+04   -.205E-01 0.521E-01 -.449E+01   0.780E-02 0.601E-01 -.102E+00
   -.567E+01 0.700E+01 0.666E+02   0.566E+01 -.698E+01 -.668E+02   0.217E-01 -.295E-01 0.357E-01   -.148E-01 0.116E-01 0.962E-01
   0.392E+01 0.738E+02 -.649E+04   -.415E+01 -.727E+02 0.649E+04   0.281E+00 -.104E+01 0.383E+01   -.459E-01 -.358E-01 0.108E+00
   -.195E+00 -.101E+01 0.332E+04   0.253E+00 0.968E+00 -.332E+04   -.595E-01 0.382E-01 -.789E+00   -.147E-01 0.238E-01 -.105E+00
   -.345E+02 0.163E+02 -.320E+04   0.344E+02 -.163E+02 0.320E+04   0.154E+00 0.526E-01 0.406E+00   -.331E-01 -.840E-02 0.200E+00
   0.271E+00 0.745E-01 0.655E+04   -.323E+00 -.240E+00 -.654E+04   0.366E-01 0.118E-01 -.454E+01   -.132E-01 0.425E-01 -.107E+00
   0.274E+01 -.232E+01 0.603E+02   -.271E+01 0.230E+01 -.605E+02   -.120E-01 0.674E-02 0.663E-01   -.249E-01 0.238E-01 0.899E-01
   -.638E+02 -.316E+02 -.648E+04   0.639E+02 0.318E+02 0.647E+04   -.596E-01 -.121E+00 0.379E+01   -.492E-01 -.652E-02 0.126E+00
   0.200E+01 -.898E+00 0.332E+04   -.203E+01 0.906E+00 -.332E+04   0.318E-01 0.316E-01 -.666E+00   -.217E-01 -.373E-01 -.950E-01
   0.118E+02 0.148E+02 -.321E+04   -.117E+02 -.148E+02 0.321E+04   -.407E-01 0.441E-01 0.177E+00   0.227E-01 -.228E-01 0.211E+00
   0.223E+00 -.364E+00 0.655E+04   -.250E+00 0.439E+00 -.654E+04   0.573E-01 -.487E-01 -.428E+01   -.222E-01 -.386E-01 -.102E+00
   0.128E+02 0.184E+01 0.705E+02   -.129E+02 -.179E+01 -.707E+02   0.411E-01 -.521E-01 0.816E-01   -.469E-02 -.600E-03 0.104E+00
   0.651E+02 0.446E+02 -.653E+04   -.646E+02 -.446E+02 0.653E+04   -.505E+00 -.396E-02 0.446E+01   0.553E-01 0.254E-01 0.115E+00
   -.398E+00 -.430E+01 0.332E+04   0.431E+00 0.433E+01 -.332E+04   -.471E-01 0.388E-01 -.730E+00   0.362E-02 -.267E-01 -.756E-01
   -.145E+02 -.895E+01 -.317E+04   0.144E+02 0.897E+01 0.317E+04   0.557E-01 -.224E-01 0.379E+00   0.114E-01 0.198E-01 0.260E+00
   -.813E-01 -.244E+00 0.655E+04   0.225E+00 0.340E+00 -.654E+04   0.684E-02 -.127E-01 -.438E+01   0.159E-01 -.356E-01 -.107E+00
   -.982E+01 -.476E+01 0.754E+02   0.980E+01 0.480E+01 -.756E+02   0.145E-01 -.252E-01 0.845E-01   -.192E-02 -.491E-02 0.122E+00
   -.960E+02 -.855E+02 -.650E+04   0.952E+02 0.849E+02 0.650E+04   0.793E+00 0.531E+00 0.442E+01   -.146E-01 0.315E-01 0.114E+00
   0.484E+00 -.698E+00 0.332E+04   -.546E+00 0.653E+00 -.332E+04   0.467E-01 0.415E-01 -.768E+00   0.772E-02 -.267E-01 -.894E-01
   0.139E+02 0.386E+01 -.322E+04   -.138E+02 -.382E+01 0.322E+04   -.721E-01 -.152E-01 0.383E+00   -.510E-01 -.304E-01 0.242E+00
   -.227E+00 -.128E-01 0.655E+04   0.550E-01 0.860E-01 -.654E+04   -.421E-01 0.665E-01 -.429E+01   0.212E-01 -.255E-01 -.102E+00
   0.107E+02 0.263E+01 0.843E+02   -.106E+02 -.249E+01 -.846E+02   -.483E-01 -.941E-01 0.101E+00   -.872E-02 -.278E-01 0.920E-01
   0.123E+03 -.354E+02 -.653E+04   -.122E+03 0.350E+02 0.653E+04   -.858E+00 0.467E+00 0.435E+01   -.467E-01 -.337E-01 0.122E+00
   -.316E+01 -.459E+01 0.332E+04   0.321E+01 0.466E+01 -.332E+04   0.509E-01 0.104E-01 -.635E+00   0.104E-01 -.427E-01 -.106E+00
   -.126E+02 -.205E+02 -.317E+04   0.126E+02 0.205E+02 0.317E+04   0.792E-01 0.613E-01 0.390E+00   -.172E-01 -.570E-01 0.212E+00
   0.171E+00 -.542E-01 0.655E+04   -.517E-01 0.383E+00 -.654E+04   -.417E-01 -.103E+00 -.442E+01   -.150E-01 -.311E-01 -.105E+00
   -.127E+02 0.293E-01 0.599E+02   0.128E+02 0.296E-01 -.601E+02   -.549E-01 -.452E-01 0.650E-01   -.270E-02 -.197E-01 0.836E-01
   -.876E+02 -.919E+01 -.652E+04   0.871E+02 0.934E+01 0.652E+04   0.503E+00 -.108E+00 0.436E+01   -.354E-01 -.387E-01 0.122E+00
   0.798E+00 0.795E+01 -.261E+04   -.865E+00 -.798E+01 0.260E+04   0.576E-01 0.182E-01 0.121E+02   0.166E-01 0.135E-01 -.561E-02
   -.686E+00 -.552E+02 -.526E+03   0.756E+00 0.611E+02 0.530E+03   -.510E-01 -.591E+01 -.422E+01   0.129E-02 0.892E-03 -.334E-02
   0.836E+00 0.732E+00 -.553E+03   -.938E+00 -.768E+00 0.554E+03   0.815E-01 0.395E-01 -.135E+01   -.228E-02 -.394E-02 0.319E-03
   0.776E+00 0.556E+02 -.525E+03   -.822E+00 -.615E+02 0.530E+03   0.287E-01 0.585E+01 -.424E+01   0.281E-02 0.331E-02 -.114E-02
 -----------------------------------------------------------------------------------------------
   0.652E-01 -.581E+00 0.295E+01   -.877E-13 0.122E-11 0.546E-11   0.262E+00 0.379E+00 -.745E+01   -.285E+00 0.165E+00 0.428E+01
 
 
 POSITION                                       TOTAL-FORCE (eV/Angst)
 -----------------------------------------------------------------------------------
     -0.00005      1.56339      7.26803        -0.035287     -0.036485     -0.665785
      0.00528      1.56701     11.53804         0.009352      0.001525     -0.009367
      1.35397      0.78165      5.13406        -0.141627     -0.110987      0.766710
      1.36124      0.78737      9.38821         0.006869      0.021865     -0.004669
      1.40047      0.70987     13.56774        -0.012637      0.000726     -0.013311
      2.70777      1.56339      7.26803         0.050797      0.018917     -0.832307
      2.72110      1.56441     11.53353         0.004867      0.001336     -0.021219
      4.06179      0.78165      5.13406         0.074076     -0.000363      0.749036
      4.05762      0.78481      9.40344         0.006335      0.000873      0.002605
      4.06797      0.75282     13.58483        -0.026311      0.025134     -0.008349
      5.41560      1.56339      7.26803        -0.037435      0.034332     -0.761875
      5.43119      1.55725     11.51248        -0.033043     -0.007809      0.006109
      6.76962      0.78165      5.13406         0.049467     -0.166802      0.783107
      6.77927      0.79306      9.38990         0.003439     -0.013439     -0.013141
      6.81149      0.86101     13.61483         0.000843     -0.022805     -0.000288
      8.12342      1.56339      7.26803         0.057947      0.063135     -0.780297
      8.11971      1.56347     11.52672         0.002900     -0.009644     -0.008215
      9.47744      0.78165      5.13406         0.014703      0.012199      0.694845
      9.47959      0.78280      9.40954        -0.019019      0.007119      0.008185
      9.42108      0.73411     13.59286         0.011925      0.015237      0.000709
     -1.35397      3.90844      7.26803        -0.024326     -0.054715     -0.751990
     -1.36110      3.91891     11.52300        -0.022180     -0.001853      0.019150
      0.00005      3.12670      5.13406        -0.240977     -0.079914      0.889354
      0.00452      3.13316      9.39793         0.015485      0.005114     -0.007635
      0.06391      3.16567     13.63186         0.009424     -0.009793      0.024923
      1.35386      3.90844      7.26803         0.046752      0.058187     -0.919671
      1.35680      3.90530     11.52443         0.004967     -0.004734     -0.015611
      2.70788      3.12670      5.13406         0.180326      0.068072      0.791330
      2.70979      3.12951      9.39833        -0.008674      0.001077     -0.014311
      2.64260      3.11274     13.61869         0.003444     -0.006376      0.022103
      4.06168      3.90844      7.26803         0.057546     -0.021245     -0.604438
      4.08157      3.90666     11.55264        -0.004003     -0.017797     -0.005203
      5.41570      3.12670      5.13406        -0.166816      0.143975      0.884068
      5.41315      3.13374      9.40179         0.012352     -0.007076     -0.009427
      5.49745      3.07352     13.62025        -0.024024      0.008996      0.002835
      6.76951      3.90844      7.26803        -0.026474     -0.056240     -0.912867
      6.77657      3.90061     11.53767         0.007206     -0.012806     -0.021840
      8.12353      3.12670      5.13406         0.222344      0.016001      0.780585
      8.13235      3.12573      9.39304        -0.002025      0.000408      0.001985
      8.09905      3.06690     13.59228         0.002744      0.017995      0.012032
     -2.70788      6.25349      7.26803         0.019734      0.026429     -0.804965
     -2.68088      6.25343     11.50258        -0.012035     -0.012528     -0.010735
     -1.35386      5.47174      5.13406        -0.049840     -0.041965      0.896809
     -1.34340      5.46987      9.38643         0.007932      0.006535     -0.002111
     -1.28751      5.52704     13.59698         0.001697      0.004621      0.008015
     -0.00005      6.25349      7.26803         0.051257     -0.063518     -0.769303
     -0.01112      6.25152     11.51499        -0.015288     -0.007365     -0.007775
      1.35397      5.47174      5.13406         0.033061      0.177554      0.737337
      1.35826      5.47298      9.40683         0.000949     -0.009548      0.005217
      1.34028      5.51879     13.55049        -0.017169      0.000813     -0.000510
      2.70777      6.25349      7.26803        -0.021959     -0.069389     -0.813708
      2.73095      6.26244     11.50193        -0.018786      0.007407      0.016043
      4.06179      5.47174      5.13406         0.038865     -0.242708      0.830305
      4.06741      5.46821      9.38962        -0.008923      0.002340     -0.007687
      4.07006      5.54965     13.60780        -0.003894      0.003584     -0.011858
      5.41560      6.25349      7.26803        -0.017483      0.016331     -0.831981
      5.41337      6.25635     11.54162         0.007269      0.012510     -0.036734
      6.76962      5.47174      5.13406        -0.028704     -0.111125      0.624177
      6.77020      5.46777      9.38544        -0.000693      0.007130     -0.015253
      6.77542      5.46089     13.57741        -0.005916      0.005016     -0.020959
     -4.06179      8.59853      7.26803        -0.020231      0.002789     -0.701106
     -4.04878      8.58517     11.54560        -0.005176     -0.005359      0.010901
     -2.70777      7.81679      5.13406         0.007111     -0.011472      0.911125
     -2.70444      7.82253      9.39026         0.012175     -0.001238     -0.000154
     -2.63960      7.81927     13.59830        -0.012717      0.000510     -0.017178
     -1.35397      8.59853      7.26803        -0.010890      0.042903     -0.866600
     -1.34929      8.60334     11.51674        -0.030565      0.017844     -0.019917
      0.00005      7.81679      5.13406         0.165525      0.048129      0.711212
     -0.00109      7.82124      9.38774        -0.007736      0.004800     -0.022961
     -0.04056      7.78616     13.57288        -0.005037      0.008145      0.012322
      1.35386      8.59853      7.26803        -0.008472     -0.029922     -0.627675
      1.37236      8.60277     11.50671        -0.002899     -0.002910      0.000700
      2.70788      7.81679      5.13406        -0.193498      0.114682      0.872053
      2.72423      7.82337      9.38714        -0.005007      0.020820     -0.018193
      2.79917      7.80124     13.61116        -0.009109      0.013795     -0.004838
      4.06168      8.59853      7.26803         0.104587      0.030979     -0.899670
      4.06082      8.59184     11.52017         0.000964     -0.003503     -0.023982
      5.41570      7.81679      5.13406         0.062084      0.195732      0.820003
      5.42003      7.81916      9.39345        -0.006781     -0.005508     -0.003665
      5.37668      7.81333     13.59105        -0.013531      0.002330     -0.003682
      1.36273      3.05480     15.30981         0.006983      0.006846     -0.045654
      1.37087      3.88035     15.91127         0.019373     -0.002967      0.031688
      5.43433      4.69193     14.65237        -0.023436     -0.000032      0.020331
      1.35836      2.22988     15.91319        -0.015038     -0.040853      0.022764
 -----------------------------------------------------------------------------------
    total drift:                                0.042617     -0.037648     -0.219062


--------------------------------------------------------------------------------------------------------



  FREE ENERGIE OF THE ION-ELECTRON SYSTEM (eV)
  ---------------------------------------------------
  free  energy   TOTEN  =      -731.09757785 eV

  energy  without entropy=     -731.13318773  energy(sigma->0) =     -731.10944781
 
 d Force = 0.5998666E-03[ 0.506E-03, 0.693E-03]  d Energy = 0.6120612E-03-0.122E-04
 d Force =-0.7811014E+01[-0.782E+01,-0.781E+01]  d Ewald  =-0.7811019E+01 0.551E-05


--------------------------------------------------------------------------------------------------------


    POTLOK:  cpu time    0.0377: real time    0.0379


--------------------------------------------------------------------------------------------------------


 stress matrix after NEB project (eV)
     -7.20470      2.36161     -1.35958
      2.36161     -7.97449      0.04315
     -1.35958      0.04315    -29.48554
  FORCES: max atom, RMS     0.049125    0.018449
  FORCE total and by dimension    0.169084    0.045654
  Stress total and by dimension   31.618856   29.485536
 Conjugate gradient step on ions:
 trial-energy change:   -0.000612  1 .order   -0.000600   -0.000693   -0.000506
  (g-gl).g = 0.967E-03      g.g   = 0.878E-03  gl.gl    = 0.191E-02
 g(Force)  = 0.878E-03   g(Stress)= 0.000E+00 ortho     = 0.771E-04
 gamma     =   0.50698
 trial     =   0.75636
 opt step  =   2.80523  (harmonic =   2.80523) maximal distance =0.00769560
 next E    =  -731.098252   (d E  =  -0.00129)


--------------------------------------------------------------------------------------------------------


  
 reached required accuracy - stopping structural energy minimisation
 writing wavefunctions
     LOOP+:  cpu time   15.1159: real time   15.3017
    4ORBIT:  cpu time    0.0000: real time    0.0000

 total amount of memory used by VASP MPI-rank0    46337. kBytes
=======================================================================

   base      :      30000. kBytes
   nonlr-proj:       1907. kBytes
   fftplans  :       2965. kBytes
   grid      :       5671. kBytes
   one-center:         46. kBytes
   wavefun   :       5748. kBytes
 
  
  
 General timing and accounting informations for this job:
 ========================================================
  
                  Total CPU time used (sec):      519.517
                            User time (sec):      517.783
                          System time (sec):        1.734
                         Elapsed time (sec):      525.907
  
                   Maximum memory used (kb):      542380.
                   Average memory used (kb):           0.
  
                          Minor page faults:       164418
                          Major page faults:          458
                 Voluntary context switches:        13477
