<?xml version="1.0" encoding="ISO-8859-1"?>
<modeling>
 <generator>
  <i name="program" type="string">vasp </i>
  <i name="version" type="string">6.4.1  </i>
  <i name="subversion" type="string">05Apr23 (build Jun 16 2023 21:25:53) gamma-only                       parallel </i>
  <i name="platform" type="string">LinuxIFC </i>
  <i name="date" type="string">2024 07 14 </i>
  <i name="time" type="string">18:53:53 </i>
 </generator>
 <incar>
  <i type="string" name="SYSTEM">Cluster</i>
  <i type="string" name="ALGO">V</i>
  <i type="int" name="NELM">   150</i>
  <i type="int" name="NELMDL">   -20</i>
  <i type="int" name="NELMIN">     6</i>
  <i type="int" name="IBRION">     0</i>
  <i name="EDIFF">      0.00001000</i>
  <i name="EDIFFG">     -0.02000000</i>
  <i type="int" name="NSW">   300</i>
  <i type="int" name="ISIF">     2</i>
  <i type="int" name="ISYM">     0</i>
  <i type="int" name="NBLOCK">     1</i>
  <i name="ENCUT">    500.00000000</i>
  <i name="POTIM">      1.00000000</i>
  <i name="TEBEG">    500.00000000</i>
  <i name="TEEND">    500.00000000</i>
  <i name="SMASS">      0.00000000</i>
  <i type="string" name="LREAL">Auto</i>
  <i type="int" name="ISMEAR">     1</i>
  <i name="SIGMA">      0.10000000</i>
  <i type="logical" name="LWAVE"> F  </i>
  <i type="logical" name="LCHARG"> F  </i>
  <i type="int" name="LORBIT">    11</i>
  <i type="int" name="MDALGO">     2</i>
 </incar>
 <primitive_cell>
  <structure name="primitive_cell" >
   <crystal>
    <varray name="basis" >
     <v>       7.75760000       0.00000000       0.00000000 </v>
     <v>       0.00000000      11.70620000       0.00000000 </v>
     <v>       0.00000000       0.00000000      11.32900000 </v>
    </varray>
    <i name="volume">   1028.80934195 </i>
    <varray name="rec_basis" >
     <v>       0.12890585       0.00000000       0.00000000 </v>
     <v>       0.00000000       0.08542482       0.00000000 </v>
     <v>       0.00000000       0.00000000       0.08826904 </v>
    </varray>
   </crystal>
   <varray name="positions" >
    <v>       0.49993427       0.70908041       0.54304917 </v>
    <v>       0.49951368       0.58083494       0.54569391 </v>
    <v>       0.49906789       0.51797054       0.44229945 </v>
    <v>       0.49911070       0.39784401       0.44151732 </v>
    <v>       0.50060727       0.39789783       0.64433340 </v>
    <v>       0.49967350       0.51667442       0.65080651 </v>
    <v>       0.50016786       0.57348298       0.33505209 </v>
    <v>       0.61378663       0.74162527       0.49595569 </v>
    <v>       0.38618367       0.74191752       0.49608149 </v>
    <v>       0.50016270       0.74399629       0.63290363 </v>
    <v>       0.53390174       0.38006122       0.26374497 </v>
    <v>       0.52797117       0.25519564       0.34357926 </v>
    <v>       0.50186710       0.34672729       0.72508652 </v>
    <v>       0.49984770       0.55991433       0.73618256 </v>
    <v>       0.49210918       0.33827554       0.33670153 </v>
    <v>       0.50078969       0.33870099       0.54287973 </v>
   </varray>
  </structure>
  <varray name="primitive_index" >
   <v type="int" >        1 </v>
   <v type="int" >        2 </v>
   <v type="int" >        3 </v>
   <v type="int" >        4 </v>
   <v type="int" >        5 </v>
   <v type="int" >        6 </v>
   <v type="int" >        7 </v>
   <v type="int" >        8 </v>
   <v type="int" >        9 </v>
   <v type="int" >       10 </v>
   <v type="int" >       11 </v>
   <v type="int" >       12 </v>
   <v type="int" >       13 </v>
   <v type="int" >       14 </v>
   <v type="int" >       15 </v>
   <v type="int" >       16 </v>
  </varray>
 </primitive_cell>
 <kpoints>
  <generation param="Gamma">
   <v type="int" name="divisions">       1        1        1 </v>
   <v name="usershift">      0.00000000       0.00000000       0.00000000 </v>
   <v name="genvec1">      1.00000000       0.00000000       0.00000000 </v>
   <v name="genvec2">      0.00000000       1.00000000       0.00000000 </v>
   <v name="genvec3">      0.00000000       0.00000000       1.00000000 </v>
   <v name="shift">      0.00000000       0.00000000       0.00000000 </v>
  </generation>
  <varray name="kpointlist" >
   <v>       0.00000000       0.00000000       0.00000000 </v>
  </varray>
  <varray name="weights" >
   <v>       1.00000000 </v>
  </varray>
 </kpoints>
 <parameters>
  <separator name="general" >
   <i type="string" name="SYSTEM">Cluster</i>
   <i type="logical" name="LCOMPAT"> F  </i>
  </separator>
  <separator name="electronic" >
   <i type="string" name="PREC">normal</i>
   <i name="ENMAX">    500.00000000</i>
   <i name="ENAUG">    644.87300000</i>
   <i name="EDIFF">      0.00001000</i>
   <i type="int" name="IALGO">    48</i>
   <i type="int" name="IWAVPR">    12</i>
   <i type="int" name="NBANDS">    36</i>
   <i type="int" name="NBANDSLOW">    -1</i>
   <i type="int" name="NBANDSHIGH">    -1</i>
   <i name="NELECT">     48.00000000</i>
   <i type="int" name="TURBO">     0</i>
   <i type="int" name="IRESTART">     0</i>
   <i type="int" name="NREBOOT">     0</i>
   <i type="int" name="NMIN">     0</i>
   <i name="EREF">      0.00000000</i>
   <separator name="electronic smearing" >
    <i type="int" name="ISMEAR">     1</i>
    <i name="SIGMA">      0.10000000</i>
    <i name="KSPACING">      0.50000000</i>
    <i type="logical" name="KGAMMA"> T  </i>
    <i type="logical" name="KBLOWUP"> T  </i>
   </separator>
   <separator name="electronic projectors" >
    <i type="logical" name="LREAL"> T  </i>
    <v name="ROPT">     -0.00050000     -0.00050000     -0.00050000     -0.00050000</v>
    <i type="int" name="LMAXPAW">  -100</i>
    <i type="int" name="LMAXMIX">     2</i>
    <i type="logical" name="NLSPLINE"> F  </i>
   </separator>
   <separator name="electronic startup" >
    <i type="int" name="ISTART">     0</i>
    <i type="int" name="ICHARG">     2</i>
    <i type="int" name="INIWAV">     1</i>
   </separator>
   <separator name="electronic spin" >
    <i type="int" name="ISPIN">     1</i>
    <i type="logical" name="LNONCOLLINEAR"> F  </i>
    <v name="MAGMOM">      1.00000000      1.00000000      1.00000000      1.00000000      1.00000000      1.00000000      1.00000000      1.00000000      1.00000000      1.00000000      1.00000000      1.00000000      1.00000000      1.00000000      1.00000000      1.00000000</v>
    <i name="NUPDOWN">     -1.00000000</i>
    <i type="logical" name="LSORBIT"> F  </i>
    <v name="SAXIS">      0.00000000      0.00000000      1.00000000</v>
    <i type="logical" name="LSPIRAL"> F  </i>
    <v name="QSPIRAL">      0.00000000      0.00000000      0.00000000</v>
    <i type="logical" name="LZEROZ"> F  </i>
   </separator>
   <separator name="electronic exchange-correlation" >
    <i type="logical" name="LASPH"> F  </i>
    <i type="logical" name="LMETAGGA"> F  </i>
   </separator>
   <separator name="electronic convergence" >
    <i type="int" name="NELM">   150</i>
    <i type="int" name="NELMDL">   -20</i>
    <i type="int" name="NELMIN">     6</i>
    <i name="ENINI">    500.00000000</i>
    <separator name="electronic convergence detail" >
     <i type="logical" name="LDIAG"> T  </i>
     <i type="logical" name="LSUBROT"> F  </i>
     <i name="WEIMIN">      0.00100000</i>
     <i name="EBREAK">      0.00000007</i>
     <i name="DEPER">      0.30000000</i>
     <i type="int" name="NRMM">     4</i>
     <i name="TIME">      0.40000000</i>
    </separator>
   </separator>
   <separator name="electronic mixer" >
    <i name="AMIX">      0.40000000</i>
    <i name="BMIX">      1.00000000</i>
    <i name="AMIN">      0.10000000</i>
    <i name="AMIX_MAG">      1.60000000</i>
    <i name="BMIX_MAG">      1.00000000</i>
    <separator name="electronic mixer details" >
     <i type="int" name="IMIX">     4</i>
     <i type="logical" name="MIXFIRST"> F  </i>
     <i type="int" name="MAXMIX">   -45</i>
     <i name="WC">    100.00000000</i>
     <i type="int" name="INIMIX">     1</i>
     <i type="int" name="MIXPRE">     1</i>
     <i type="int" name="MREMOVE">     5</i>
    </separator>
   </separator>
   <separator name="electronic dipolcorrection" >
    <i type="logical" name="LDIPOL"> F  </i>
    <i type="logical" name="LMONO"> F  </i>
    <i type="int" name="IDIPOL">     0</i>
    <i name="EPSILON">      1.00000000</i>
    <v name="DIPOL">   -100.00000000   -100.00000000   -100.00000000</v>
    <i name="EFIELD">      0.00000000</i>
   </separator>
  </separator>
  <separator name="grids" >
   <i type="int" name="NGX">    42</i>
   <i type="int" name="NGY">    64</i>
   <i type="int" name="NGZ">    64</i>
   <i type="int" name="NGXF">    84</i>
   <i type="int" name="NGYF">   128</i>
   <i type="int" name="NGZF">   128</i>
   <i type="logical" name="ADDGRID"> F  </i>
  </separator>
  <separator name="ionic" >
   <i type="int" name="NSW">   300</i>
   <i type="int" name="IBRION">     0</i>
   <i type="int" name="MDALGO">     2</i>
   <i type="int" name="ISIF">     2</i>
   <i name="PSTRESS">      0.00000000</i>
   <i name="EDIFFG">     -0.02000000</i>
   <i type="int" name="NFREE">     0</i>
   <i name="POTIM">      1.00000000</i>
   <i name="SMASS">      0.02519734</i>
   <i name="SCALEE">      1.00000000</i>
  </separator>
  <separator name="ionic md" >
   <i name="TEBEG">    500.00000000</i>
   <i name="TEEND">    500.00000000</i>
   <i type="int" name="NBLOCK">     1</i>
   <i type="int" name="KBLOCK">   300</i>
   <i type="int" name="NPACO">   256</i>
   <i name="APACO">     10.00000000</i>
  </separator>
  <separator name="symmetry" >
   <i type="int" name="ISYM">     0</i>
   <i name="SYMPREC">      0.00001000</i>
  </separator>
  <separator name="dos" >
   <i type="int" name="LORBIT">    11</i>
   <v name="RWIGS">     -1.00000000     -1.00000000     -1.00000000     -1.00000000</v>
   <i type="int" name="NEDOS">   301</i>
   <i name="EMIN">     10.00000000</i>
   <i name="EMAX">    -10.00000000</i>
   <i name="EFERMI">      0.00000000</i>
  </separator>
  <separator name="writing" >
   <i type="int" name="NWRITE">     2</i>
   <i type="logical" name="LWAVE"> F  </i>
   <i type="logical" name="LDOWNSAMPLE"> F  </i>
   <i type="logical" name="LCHARG"> F  </i>
   <i type="logical" name="LPARD"> F  </i>
   <i type="logical" name="LVTOT"> F  </i>
   <i type="logical" name="LVHAR"> F  </i>
   <i type="logical" name="LELF"> F  </i>
   <i type="logical" name="LOPTICS"> F  </i>
   <v name="STM">      0.00000000      0.00000000      0.00000000      0.00000000      0.00000000      0.00000000      0.00000000</v>
  </separator>
  <separator name="performance" >
   <i type="int" name="NPAR">     4</i>
   <i type="int" name="NSIM">     4</i>
   <i type="int" name="NBLK">    -1</i>
   <i type="logical" name="LPLANE"> T  </i>
   <i type="logical" name="LSCALAPACK"> T  </i>
   <i type="logical" name="LSCAAWARE"> F  </i>
   <i type="logical" name="LSCALU"> F  </i>
   <i type="logical" name="LASYNC"> F  </i>
   <i type="logical" name="LORBITALREAL"> F  </i>
  </separator>
  <separator name="miscellaneous" >
   <i type="int" name="IDIOT">     3</i>
   <i type="int" name="PHON_NSTRUCT">    -1</i>
   <i type="logical" name="LMUSIC"> F  </i>
   <v name="POMASS">     12.01100000     18.99800000      1.00000000     14.00100000</v>
   <v name="DARWINR">      0.00000000      0.00000000      0.00000000      0.00000000</v>
   <v name="DARWINV">      1.00000000      1.00000000      1.00000000      1.00000000</v>
   <i type="logical" name="LCORR"> T  </i>
  </separator>
  <i type="logical" name="GGA_COMPAT"> T  </i>
  <i type="logical" name="LBERRY"> F  </i>
  <i type="int" name="ICORELEVEL">     0</i>
  <i type="logical" name="LDAU"> F  </i>
  <i type="int" name="I_CONSTRAINED_M">     0</i>
  <separator name="electronic exchange-correlation" >
   <i type="string" name="GGA">--</i>
   <i type="int" name="VOSKOWN">     0</i>
   <i type="logical" name="LHFCALC"> F  </i>
   <i type="string" name="PRECFOCK"></i>
   <i type="logical" name="LSYMGRAD"> F  </i>
   <i type="logical" name="LHFONE"> F  </i>
   <i type="logical" name="LRHFCALC"> F  </i>
   <i type="logical" name="LTHOMAS"> F  </i>
   <i type="logical" name="LMODELHF"> F  </i>
   <i type="logical" name="LFOCKACE"> F  </i>
   <i name="ENCUT4O">     -1.00000000</i>
   <i type="int" name="EXXOEP">     0</i>
   <i type="int" name="FOURORBIT">     0</i>
   <i name="AEXX">      0.00000000</i>
   <i name="HFALPHA">      0.00000000</i>
   <i name="MCALPHA">      0.00000000</i>
   <i name="ALDAX">      1.00000000</i>
   <i name="AGGAX">      1.00000000</i>
   <i name="ALDAC">      1.00000000</i>
   <i name="AGGAC">      1.00000000</i>
   <i type="int" name="NKREDX">     1</i>
   <i type="int" name="NKREDY">     1</i>
   <i type="int" name="NKREDZ">     1</i>
   <i type="logical" name="SHIFTRED"> F  </i>
   <i type="logical" name="ODDONLY"> F  </i>
   <i type="logical" name="EVENONLY"> F  </i>
   <i type="int" name="LMAXFOCK">     0</i>
   <i type="int" name="NMAXFOCKAE">     0</i>
   <i type="logical" name="LFOCKAEDFT"> F  </i>
   <i name="HFSCREEN">      0.00000000</i>
   <i name="HFSCREENC">      0.00000000</i>
   <i type="int" name="NBANDSGWLOW">     0</i>
  </separator>
  <separator name="vdW DFT" >
   <i type="logical" name="LUSE_VDW"> F  </i>
   <i type="int" name="IVDW_NL">     1</i>
   <i type="logical" name="LSPIN_VDW"> F  </i>
   <i name="Zab_VDW">     -0.84910000</i>
   <i name="PARAM1">      0.12340000</i>
   <i name="PARAM2">      1.00000000</i>
   <i name="PARAM3">      0.00000000</i>
  </separator>
  <separator name="model GW" >
   <i type="int" name="MODEL_GW">     0</i>
   <i name="MODEL_EPS0">     38.58035032</i>
   <i name="MODEL_ALPHA">      1.00000000</i>
  </separator>
  <separator name="linear response parameters" >
   <i type="logical" name="LEPSILON"> F  </i>
   <i type="logical" name="LRPA"> F  </i>
   <i type="logical" name="LNABLA"> F  </i>
   <i type="logical" name="LVEL"> F  </i>
   <i name="CSHIFT">      0.10000000</i>
   <i name="OMEGAMAX">     -1.00000000</i>
   <i name="DEG_THRESHOLD">      0.00200000</i>
   <i name="RTIME">     -0.10000000</i>
   <i name="WPLASMAI">      0.00000000</i>
   <v name="DFIELD">      0.00000000      0.00000000      0.00000000</v>
   <v name="WPLASMA">      0.00000000      0.00000000      0.00000000      0.00000000      0.00000000      0.00000000      0.00000000      0.00000000      0.00000000</v>
  </separator>
  <separator name="orbital magnetization" >
   <i type="logical" name="NUCIND"> F  </i>
   <v name="MAGPOS">      0.00000000      0.00000000      0.00000000</v>
   <i type="logical" name="LNICSALL"> T  </i>
   <i type="logical" name="ORBITALMAG"> F  </i>
   <i type="logical" name="LMAGBLOCH"> F  </i>
   <i type="logical" name="LCHIMAG"> F  </i>
   <i type="logical" name="LGAUGE"> T  </i>
   <i type="int" name="MAGATOM">     0</i>
   <v name="MAGDIPOL">      0.00000000      0.00000000      0.00000000</v>
   <v name="AVECCONST">      0.00000000      0.00000000      0.00000000</v>
  </separator>
  <separator name="response functions" >
   <i type="logical" name="LALL_IN_ONE"> F  </i>
   <i type="int" name="IALL_IN_ONE">    -1</i>
   <i type="int" name="NBANDS_WAVE">    -1</i>
   <i type="logical" name="LFINITE_TEMPERATURE"> F  </i>
   <i type="logical" name="LADDER"> F  </i>
   <i type="logical" name="LRPAFORCE"> F  </i>
   <i type="logical" name="LFXC"> F  </i>
   <i type="logical" name="LHARTREE"> T  </i>
   <i type="int" name="IBSE">     0</i>
   <v type="int" name="KPOINT">    -1     0     0     0</v>
   <i type="logical" name="LTCTC"> F  </i>
   <i type="logical" name="LTCTE"> F  </i>
   <i type="logical" name="LTETE"> F  </i>
   <i type="logical" name="LTRIPLET"> F  </i>
   <i type="logical" name="LFXCEPS"> F  </i>
   <i type="logical" name="LFXHEG"> F  </i>
   <i type="int" name="NATURALO">     2</i>
   <i type="logical" name="LHOLEGF"> F  </i>
   <i type="logical" name="L2ORDER"> F  </i>
   <i type="logical" name="LDMP1"> F  </i>
   <i type="logical" name="LMP2LT"> F  </i>
   <i type="logical" name="LSMP2LT"> F  </i>
   <i type="logical" name="LGWLF"> F  </i>
   <i name="ENCUTGW">     -1.60000002</i>
   <i name="ENCUTGWSOFT">     -1.60000002</i>
   <i name="ENCUTLF">     -1.00000000</i>
   <i type="logical" name="LESF_SPLINES"> F  </i>
   <i type="int" name="LMAXMP2">    -1</i>
   <i name="SCISSOR">      0.00000000</i>
   <i type="int" name="NOMEGA">     0</i>
   <i type="int" name="NOMEGAR">     0</i>
   <i type="int" name="NBANDSGW">    -1</i>
   <i type="int" name="NBANDSO">    -1</i>
   <i type="int" name="NBANDSV">    -1</i>
   <i type="int" name="NELMGW">     1</i>
   <i type="int" name="NELMHF">     1</i>
   <i type="int" name="DIM">     3</i>
   <i type="int" name="IESPILON">     4</i>
   <i type="int" name="ANTIRES">     0</i>
   <i name="OMEGAMAX">    -30.00000000</i>
   <i name="OMEGAMIN">    -30.00000000</i>
   <i name="OMEGATL">   -200.00000000</i>
   <i type="int" name="OMEGAGRID">     0</i>
   <i name="CSHIFT">     -0.10000000</i>
   <i type="logical" name="LSELFENERGY"> F  </i>
   <i type="logical" name="LSPECTRAL"> F  </i>
   <i type="logical" name="LSPECTRALGW"> F  </i>
   <i type="logical" name="LSINGLES"> F  </i>
   <i type="logical" name="LFERMIGW"> F  </i>
   <i type="logical" name="ODDONLYGW"> F  </i>
   <i type="logical" name="EVENONLYGW"> F  </i>
   <i type="int" name="NKREDLFX">     1</i>
   <i type="int" name="NKREDLFY">     1</i>
   <i type="int" name="NKREDLFZ">     1</i>
   <i type="int" name="MAXMEM">  2800</i>
   <i type="int" name="TELESCOPE">     0</i>
   <i type="int" name="NTAUPAR">    -1</i>
   <i type="int" name="NOMEGAPAR">    -1</i>
   <i name="DAMP_NEWTON">      0.80000001</i>
   <i name="LAMBDA">      1.00000000</i>
  </separator>
  <separator name="External order field" >
   <i name="OFIELD_KAPPA">      0.00000000</i>
   <v name="OFIELD_K">      0.00000000      0.00000000      0.00000000</v>
   <i name="OFIELD_Q6_NEAR">      0.00000000</i>
   <i name="OFIELD_Q6_FAR">      0.00000000</i>
   <i name="OFIELD_A">      0.00000000</i>
  </separator>
  <separator name="optional k-points parameters" >
   <i type="int" name="KPOINTS_OPT_MODE">     1</i>
   <i type="logical" name="LKPOINTS_OPT"> F  </i>
  </separator>
  <separator name="solvation model" >
   <i type="logical" name="LSOL"> F  </i>
  </separator>
 </parameters>
 <atominfo>
  <atoms>      16 </atoms>
  <types>       4 </types>
  <array name="atoms" >
   <dimension dim="1">ion</dimension>
   <field type="string">element</field>
   <field type="int">atomtype</field>
   <set>
    <rc><c>C </c><c>   1</c></rc>
    <rc><c>C </c><c>   1</c></rc>
    <rc><c>C </c><c>   1</c></rc>
    <rc><c>C </c><c>   1</c></rc>
    <rc><c>C </c><c>   1</c></rc>
    <rc><c>C </c><c>   1</c></rc>
    <rc><c>F </c><c>   2</c></rc>
    <rc><c>H </c><c>   3</c></rc>
    <rc><c>H </c><c>   3</c></rc>
    <rc><c>H </c><c>   3</c></rc>
    <rc><c>H </c><c>   3</c></rc>
    <rc><c>H </c><c>   3</c></rc>
    <rc><c>H </c><c>   3</c></rc>
    <rc><c>H </c><c>   3</c></rc>
    <rc><c>N </c><c>   4</c></rc>
    <rc><c>N </c><c>   4</c></rc>
   </set>
  </array>
  <array name="atomtypes" >
   <dimension dim="1">type</dimension>
   <field type="int">atomspertype</field>
   <field type="string">element</field>
   <field>mass</field>
   <field>valence</field>
   <field type="string">pseudopotential</field>
   <set>
    <rc><c>   6</c><c>C </c><c>     12.01100000</c><c>      4.00000000</c><c>  PAW_PBE C 08Apr2002                   </c></rc>
    <rc><c>   1</c><c>F </c><c>     18.99800000</c><c>      7.00000000</c><c>  PAW_PBE F 08Apr2002                   </c></rc>
    <rc><c>   7</c><c>H </c><c>      1.00000000</c><c>      1.00000000</c><c>  PAW_PBE H 15Jun2001                   </c></rc>
    <rc><c>   2</c><c>N </c><c>     14.00100000</c><c>      5.00000000</c><c>  PAW_PBE N 08Apr2002                   </c></rc>
   </set>
  </array>
 </atominfo>
 <structure name="initialpos" >
  <crystal>
   <varray name="basis" >
    <v>       7.75760000       0.00000000       0.00000000 </v>
    <v>       0.00000000      11.70620000       0.00000000 </v>
    <v>       0.00000000       0.00000000      11.32900000 </v>
   </varray>
   <i name="volume">   1028.80934195 </i>
   <varray name="rec_basis" >
    <v>       0.12890585       0.00000000       0.00000000 </v>
    <v>       0.00000000       0.08542482       0.00000000 </v>
    <v>       0.00000000       0.00000000       0.08826904 </v>
   </varray>
  </crystal>
  <varray name="positions" >
   <v>       0.49993427       0.70908041       0.54304917 </v>
   <v>       0.49951368       0.58083494       0.54569391 </v>
   <v>       0.49906789       0.51797054       0.44229945 </v>
   <v>       0.49911070       0.39784401       0.44151732 </v>
   <v>       0.50060727       0.39789783       0.64433340 </v>
   <v>       0.49967350       0.51667442       0.65080651 </v>
   <v>       0.50016786       0.57348298       0.33505209 </v>
   <v>       0.61378663       0.74162527       0.49595569 </v>
   <v>       0.38618367       0.74191752       0.49608149 </v>
   <v>       0.50016270       0.74399629       0.63290363 </v>
   <v>       0.53390174       0.38006122       0.26374497 </v>
   <v>       0.52797117       0.25519564       0.34357926 </v>
   <v>       0.50186710       0.34672729       0.72508652 </v>
   <v>       0.49984770       0.55991433       0.73618256 </v>
   <v>       0.49210918       0.33827554       0.33670153 </v>
   <v>       0.50078969       0.33870099       0.54287973 </v>
  </varray>
  <varray name="velocities" >
   <v>       0.00082133      -0.00046287      -0.00018003 </v>
   <v>       0.00030987       0.00090096      -0.00035164 </v>
   <v>      -0.00040786      -0.00014648       0.00035307 </v>
   <v>      -0.00002134       0.00024306      -0.00000552 </v>
   <v>       0.00047879      -0.00009195      -0.00004560 </v>
   <v>       0.00047455      -0.00058892      -0.00039713 </v>
   <v>      -0.00066720      -0.00020888       0.00044946 </v>
   <v>       0.00148299       0.00087508      -0.00195789 </v>
   <v>      -0.00037243       0.00393380       0.00170514 </v>
   <v>      -0.00338908       0.00107070       0.00240448 </v>
   <v>       0.00220958      -0.00011761       0.00211766 </v>
   <v>      -0.00552211      -0.00392727       0.00076552 </v>
   <v>       0.00048624      -0.00098394      -0.00190824 </v>
   <v>      -0.00093515       0.00047648      -0.00198497 </v>
   <v>       0.00047414       0.00025679      -0.00081822 </v>
   <v>      -0.00055748       0.00005725       0.00066456 </v>
  </varray>
 </structure>
 <calculation>
  <scstep>
   <time name="diag">    0.16    0.37</time>
   <time name="diis">    0.18    0.18</time>
   <time name="orth">    0.01    0.01</time>
   <time name="total">    0.54    0.80</time>
   <energy>
    <i name="alphaZ">      9.72596956 </i>
    <i name="ewald">   1889.08501437 </i>
    <i name="hartreedc">  -3524.02562021 </i>
    <i name="XCdc">    171.28426070 </i>
    <i name="pawpsdc">   1615.14374411 </i>
    <i name="pawaedc">  -1626.10587105 </i>
    <i name="eentropy">      0.00579817 </i>
    <i name="bandstr">     96.32198727 </i>
    <i name="atom">   2158.97731088 </i>
    <i name="e_fr_energy">    790.41259381 </i>
    <i name="e_wo_entrp">    790.40679563 </i>
    <i name="e_0_energy">    790.41066108 </i>
   </energy>
  </scstep>
  <scstep>
   <time name="diag">    0.04    0.05</time>
   <time name="diis">    0.16    0.16</time>
   <time name="orth">    0.00    0.01</time>
   <time name="total">    0.20    0.21</time>
   <energy>
    <i name="e_fr_energy">    398.24213189 </i>
    <i name="e_wo_entrp">    398.23632730 </i>
    <i name="e_0_energy">    398.24019703 </i>
   </energy>
  </scstep>
  <scstep>
   <time name="diag">    0.08    0.08</time>
   <time name="diis">    0.16    0.16</time>
   <time name="orth">    0.01    0.01</time>
   <time name="total">    0.25    0.25</time>
   <energy>
    <i name="e_fr_energy">    236.26337907 </i>
    <i name="e_wo_entrp">    236.32906553 </i>
    <i name="e_0_energy">    236.28527455 </i>
   </energy>
  </scstep>
  <scstep>
   <time name="diag">    0.08    0.08</time>
   <time name="diis">    0.17    0.17</time>
   <time name="orth">    0.00    0.00</time>
   <time name="total">    0.25    0.25</time>
   <energy>
    <i name="e_fr_energy">     75.05763226 </i>
    <i name="e_wo_entrp">     75.04863027 </i>
    <i name="e_0_energy">     75.05463160 </i>
   </energy>
  </scstep>
  <scstep>
   <time name="diag">    0.08    0.08</time>
   <time name="diis">    0.17    0.17</time>
   <time name="orth">    0.00    0.00</time>
   <time name="total">    0.26    0.26</time>
   <energy>
    <i name="e_fr_energy">    -14.61326960 </i>
    <i name="e_wo_entrp">    -14.60917726 </i>
    <i name="e_0_energy">    -14.61190549 </i>
   </energy>
  </scstep>
  <scstep>
   <time name="diag">    0.07    0.07</time>
   <time name="diis">    0.18    0.18</time>
   <time name="orth">    0.00    0.01</time>
   <time name="total">    0.25    0.26</time>
   <energy>
    <i name="e_fr_energy">    -73.57756036 </i>
    <i name="e_wo_entrp">    -73.58335827 </i>
    <i name="e_0_energy">    -73.57949300 </i>
   </energy>
  </scstep>
  <scstep>
   <time name="diag">    0.07    0.07</time>
   <time name="diis">    0.18    0.18</time>
   <time name="orth">    0.00    0.00</time>
   <time name="total">    0.25    0.26</time>
   <energy>
    <i name="e_fr_energy">    -99.36913703 </i>
    <i name="e_wo_entrp">    -99.37493494 </i>
    <i name="e_0_energy">    -99.37106967 </i>
   </energy>
  </scstep>
  <scstep>
   <time name="diag">    0.08    0.08</time>
   <time name="diis">    0.17    0.18</time>
   <time name="orth">    0.01    0.01</time>
   <time name="total">    0.25    0.26</time>
   <energy>
    <i name="e_fr_energy">   -107.17736322 </i>
    <i name="e_wo_entrp">   -107.18543439 </i>
    <i name="e_0_energy">   -107.18005361 </i>
   </energy>
  </scstep>
  <scstep>
   <time name="diag">    0.07    0.07</time>
   <time name="diis">    0.17    0.17</time>
   <time name="orth">    0.01    0.01</time>
   <time name="total">    0.25    0.25</time>
   <energy>
    <i name="e_fr_energy">   -109.21962428 </i>
    <i name="e_wo_entrp">   -109.22542218 </i>
    <i name="e_0_energy">   -109.22155691 </i>
   </energy>
  </scstep>
  <scstep>
   <time name="diag">    0.08    0.08</time>
   <time name="diis">    0.17    0.17</time>
   <time name="orth">    0.00    0.00</time>
   <time name="total">    0.25    0.25</time>
   <energy>
    <i name="e_fr_energy">   -109.87410934 </i>
    <i name="e_wo_entrp">   -109.87990724 </i>
    <i name="e_0_energy">   -109.87604197 </i>
   </energy>
  </scstep>
  <scstep>
   <time name="diag">    0.08    0.08</time>
   <time name="diis">    0.17    0.17</time>
   <time name="orth">    0.00    0.01</time>
   <time name="total">    0.25    0.26</time>
   <energy>
    <i name="e_fr_energy">   -110.07116145 </i>
    <i name="e_wo_entrp">   -110.07695936 </i>
    <i name="e_0_energy">   -110.07309409 </i>
   </energy>
  </scstep>
  <scstep>
   <time name="diag">    0.08    0.08</time>
   <time name="diis">    0.16    0.17</time>
   <time name="orth">    0.01    0.01</time>
   <time name="total">    0.25    0.25</time>
   <energy>
    <i name="e_fr_energy">   -110.14361697 </i>
    <i name="e_wo_entrp">   -110.14941488 </i>
    <i name="e_0_energy">   -110.14554961 </i>
   </energy>
  </scstep>
  <scstep>
   <time name="diag">    0.08    0.08</time>
   <time name="diis">    0.16    0.17</time>
   <time name="orth">    0.01    0.01</time>
   <time name="total">    0.25    0.26</time>
   <energy>
    <i name="e_fr_energy">   -110.17067021 </i>
    <i name="e_wo_entrp">   -110.17646812 </i>
    <i name="e_0_energy">   -110.17260285 </i>
   </energy>
  </scstep>
  <scstep>
   <time name="diag">    0.08    0.08</time>
   <time name="diis">    0.17    0.17</time>
   <time name="orth">    0.00    0.00</time>
   <time name="total">    0.25    0.26</time>
   <energy>
    <i name="e_fr_energy">   -110.18184648 </i>
    <i name="e_wo_entrp">   -110.18764439 </i>
    <i name="e_0_energy">   -110.18377912 </i>
   </energy>
  </scstep>
  <scstep>
   <time name="diag">    0.08    0.08</time>
   <time name="diis">    0.32    0.33</time>
   <time name="orth">    0.00    0.00</time>
   <time name="total">    0.40    0.41</time>
   <energy>
    <i name="e_fr_energy">   -110.18897958 </i>
    <i name="e_wo_entrp">   -110.19477749 </i>
    <i name="e_0_energy">   -110.19091222 </i>
   </energy>
  </scstep>
  <scstep>
   <time name="diag">    0.08    0.08</time>
   <time name="diis">    0.32    0.33</time>
   <time name="orth">    0.00    0.01</time>
   <time name="total">    0.40    0.41</time>
   <energy>
    <i name="e_fr_energy">   -110.18986422 </i>
    <i name="e_wo_entrp">   -110.19566212 </i>
    <i name="e_0_energy">   -110.19179685 </i>
   </energy>
  </scstep>
  <scstep>
   <time name="diag">    0.08    0.08</time>
   <time name="diis">    0.27    0.27</time>
   <time name="orth">    0.00    0.00</time>
   <time name="total">    0.35    0.36</time>
   <energy>
    <i name="e_fr_energy">   -110.19001450 </i>
    <i name="e_wo_entrp">   -110.19581241 </i>
    <i name="e_0_energy">   -110.19194714 </i>
   </energy>
  </scstep>
  <scstep>
   <time name="diag">    0.08    0.08</time>
   <time name="diis">    0.24    0.24</time>
   <time name="orth">    0.00    0.00</time>
   <time name="total">    0.33    0.33</time>
   <energy>
    <i name="e_fr_energy">   -110.19002456 </i>
    <i name="e_wo_entrp">   -110.19582246 </i>
    <i name="e_0_energy">   -110.19195719 </i>
   </energy>
  </scstep>
  <scstep>
   <time name="diag">    0.08    0.08</time>
   <time name="diis">    0.22    0.23</time>
   <time name="orth">    0.00    0.00</time>
   <time name="total">    0.31    0.31</time>
   <energy>
    <i name="e_fr_energy">   -110.19002537 </i>
    <i name="e_wo_entrp">   -110.19582327 </i>
    <i name="e_0_energy">   -110.19195800 </i>
   </energy>
  </scstep>
  <scstep>
   <time name="diag">    0.07    0.07</time>
   <time name="diis">    0.22    0.22</time>
   <time name="orth">    0.00    0.00</time>
   <time name="total">    0.34    0.35</time>
   <energy>
    <i name="e_fr_energy">   -110.19002559 </i>
    <i name="e_wo_entrp">   -110.19582350 </i>
    <i name="e_0_energy">   -110.19195823 </i>
   </energy>
  </scstep>
  <scstep>
   <time name="diag">    0.08    0.08</time>
   <time name="diis">    0.46    0.47</time>
   <time name="orth">    0.00    0.00</time>
   <time name="total">    0.80    0.81</time>
   <energy>
    <i name="e_fr_energy">   -102.53145766 </i>
    <i name="e_wo_entrp">   -102.53725556 </i>
    <i name="e_0_energy">   -102.53339029 </i>
   </energy>
  </scstep>
  <scstep>
   <time name="diag">    0.07    0.07</time>
   <time name="diis">    0.50    0.51</time>
   <time name="orth">    0.00    0.00</time>
   <time name="total">    0.80    0.81</time>
   <energy>
    <i name="e_fr_energy">   -100.88209446 </i>
    <i name="e_wo_entrp">   -100.88789237 </i>
    <i name="e_0_energy">   -100.88402710 </i>
   </energy>
  </scstep>
  <scstep>
   <time name="diag">    0.07    0.07</time>
   <time name="diis">    0.49    0.50</time>
   <time name="orth">    0.01    0.01</time>
   <time name="total">    0.80    0.81</time>
   <energy>
    <i name="e_fr_energy">   -100.57539239 </i>
    <i name="e_wo_entrp">   -100.58119030 </i>
    <i name="e_0_energy">   -100.57732503 </i>
   </energy>
  </scstep>
  <scstep>
   <time name="diag">    0.07    0.07</time>
   <time name="diis">    0.48    0.48</time>
   <time name="orth">    0.00    0.00</time>
   <time name="total">    0.79    0.80</time>
   <energy>
    <i name="e_fr_energy">   -100.54470607 </i>
    <i name="e_wo_entrp">   -100.55050398 </i>
    <i name="e_0_energy">   -100.54663871 </i>
   </energy>
  </scstep>
  <scstep>
   <time name="diag">    0.06    0.06</time>
   <time name="diis">    0.35    0.35</time>
   <time name="orth">    0.00    0.00</time>
   <time name="total">    0.67    0.67</time>
   <energy>
    <i name="e_fr_energy">   -100.53812482 </i>
    <i name="e_wo_entrp">   -100.54392273 </i>
    <i name="e_0_energy">   -100.54005746 </i>
   </energy>
  </scstep>
  <scstep>
   <time name="diag">    0.08    0.08</time>
   <time name="diis">    0.34    0.35</time>
   <time name="orth">    0.00    0.00</time>
   <time name="total">    0.69    0.70</time>
   <energy>
    <i name="e_fr_energy">   -100.53724727 </i>
    <i name="e_wo_entrp">   -100.54304517 </i>
    <i name="e_0_energy">   -100.53917990 </i>
   </energy>
  </scstep>
  <scstep>
   <time name="diag">    0.08    0.08</time>
   <time name="diis">    0.30    0.31</time>
   <time name="orth">    0.00    0.00</time>
   <time name="total">    0.64    0.65</time>
   <energy>
    <i name="e_fr_energy">   -100.54198469 </i>
    <i name="e_wo_entrp">   -100.54778259 </i>
    <i name="e_0_energy">   -100.54391732 </i>
   </energy>
  </scstep>
  <scstep>
   <time name="diag">    0.08    0.08</time>
   <time name="diis">    0.31    0.31</time>
   <time name="orth">    0.01    0.01</time>
   <time name="total">    0.64    0.65</time>
   <energy>
    <i name="e_fr_energy">   -100.54872721 </i>
    <i name="e_wo_entrp">   -100.55452511 </i>
    <i name="e_0_energy">   -100.55065984 </i>
   </energy>
  </scstep>
  <scstep>
   <time name="diag">    0.08    0.08</time>
   <time name="diis">    0.30    0.31</time>
   <time name="orth">    0.01    0.01</time>
   <time name="total">    0.61    0.61</time>
   <energy>
    <i name="e_fr_energy">   -100.55312543 </i>
    <i name="e_wo_entrp">   -100.55892334 </i>
    <i name="e_0_energy">   -100.55505807 </i>
   </energy>
  </scstep>
  <scstep>
   <time name="diag">    0.07    0.07</time>
   <time name="diis">    0.29    0.29</time>
   <time name="orth">    0.01    0.01</time>
   <time name="total">    0.58    0.59</time>
   <energy>
    <i name="e_fr_energy">   -100.55617564 </i>
    <i name="e_wo_entrp">   -100.56197355 </i>
    <i name="e_0_energy">   -100.55810828 </i>
   </energy>
  </scstep>
  <scstep>
   <time name="diag">    0.05    0.05</time>
   <time name="diis">    0.23    0.24</time>
   <time name="orth">    0.00    0.00</time>
   <time name="total">    0.53    0.54</time>
   <energy>
    <i name="e_fr_energy">   -100.55685743 </i>
    <i name="e_wo_entrp">   -100.56265533 </i>
    <i name="e_0_energy">   -100.55879006 </i>
   </energy>
  </scstep>
  <scstep>
   <time name="diag">    0.07    0.07</time>
   <time name="diis">    0.23    0.23</time>
   <time name="orth">    0.00    0.00</time>
   <time name="total">    0.56    0.57</time>
   <energy>
    <i name="e_fr_energy">   -100.55710505 </i>
    <i name="e_wo_entrp">   -100.56290295 </i>
    <i name="e_0_energy">   -100.55903768 </i>
   </energy>
  </scstep>
  <scstep>
   <time name="diag">    0.08    0.08</time>
   <time name="diis">    0.19    0.19</time>
   <time name="orth">    0.00    0.00</time>
   <time name="total">    0.51    0.52</time>
   <energy>
    <i name="e_fr_energy">   -100.55716246 </i>
    <i name="e_wo_entrp">   -100.56296037 </i>
    <i name="e_0_energy">   -100.55909510 </i>
   </energy>
  </scstep>
  <scstep>
   <time name="diag">    0.08    0.08</time>
   <time name="diis">    0.21    0.21</time>
   <time name="orth">    0.00    0.00</time>
   <time name="total">    0.53    0.54</time>
   <energy>
    <i name="e_fr_energy">   -100.55722012 </i>
    <i name="e_wo_entrp">   -100.56301803 </i>
    <i name="e_0_energy">   -100.55915276 </i>
   </energy>
  </scstep>
  <scstep>
   <time name="diag">    0.07    0.08</time>
   <time name="diis">    0.19    0.19</time>
   <time name="orth">    0.00    0.00</time>
   <time name="total">    0.46    0.46</time>
   <energy>
    <i name="alphaZ">      9.72596956 </i>
    <i name="ewald">   1889.08501437 </i>
    <i name="hartreedc">  -3717.18210904 </i>
    <i name="XCdc">    180.28738580 </i>
    <i name="pawpsdc">   4288.28108571 </i>
    <i name="pawaedc">  -4300.67398891 </i>
    <i name="eentropy">      0.00579791 </i>
    <i name="bandstr">   -609.06369566 </i>
    <i name="atom">   2158.97731088 </i>
    <i name="e_fr_energy">   -100.55722937 </i>
    <i name="e_wo_entrp">   -100.56302728 </i>
    <i name="e_0_energy">   -100.55916201 </i>
   </energy>
  </scstep>
  <structure>
   <crystal>
    <varray name="basis" >
     <v>       7.75760000       0.00000000       0.00000000 </v>
     <v>       0.00000000      11.70620000       0.00000000 </v>
     <v>       0.00000000       0.00000000      11.32900000 </v>
    </varray>
    <i name="volume">   1028.80934195 </i>
    <varray name="rec_basis" >
     <v>       0.12890585       0.00000000       0.00000000 </v>
     <v>       0.00000000       0.08542482       0.00000000 </v>
     <v>       0.00000000       0.00000000       0.08826904 </v>
    </varray>
   </crystal>
   <varray name="positions" >
    <v>       0.49993427       0.70908041       0.54304917 </v>
    <v>       0.49951368       0.58083494       0.54569391 </v>
    <v>       0.49906789       0.51797054       0.44229945 </v>
    <v>       0.49911070       0.39784401       0.44151732 </v>
    <v>       0.50060727       0.39789783       0.64433340 </v>
    <v>       0.49967350       0.51667442       0.65080651 </v>
    <v>       0.50016786       0.57348298       0.33505209 </v>
    <v>       0.61378663       0.74162527       0.49595569 </v>
    <v>       0.38618367       0.74191752       0.49608149 </v>
    <v>       0.50016270       0.74399629       0.63290363 </v>
    <v>       0.53390174       0.38006122       0.26374497 </v>
    <v>       0.52797117       0.25519564       0.34357926 </v>
    <v>       0.50186710       0.34672729       0.72508652 </v>
    <v>       0.49984770       0.55991433       0.73618256 </v>
    <v>       0.49210918       0.33827554       0.33670153 </v>
    <v>       0.50078969       0.33870099       0.54287973 </v>
   </varray>
  </structure>
  <varray name="forces" >
   <v>       0.00094667      -0.01681238       0.01515796 </v>
   <v>      -0.00168509       0.01190855       0.04661275 </v>
   <v>      -0.00352995       0.01261906       0.01480888 </v>
   <v>       0.01499254      -0.00404268      -0.02503185 </v>
   <v>      -0.00782957       0.04336082       0.00429206 </v>
   <v>       0.00052515       0.00893606       0.01320603 </v>
   <v>       0.00955181       0.00980817      -0.00184551 </v>
   <v>      -0.01307270       0.01370993       0.01227438 </v>
   <v>       0.01096707       0.01626190       0.01069272 </v>
   <v>       0.00012619       0.00726751      -0.02133402 </v>
   <v>      -0.02693288      -0.03640330      -0.02160669 </v>
   <v>      -0.01287360      -0.01074838      -0.02408443 </v>
   <v>      -0.00029888      -0.00324098      -0.00977086 </v>
   <v>       0.00038501      -0.00998752      -0.02609957 </v>
   <v>       0.04911494      -0.00318672       0.00434500 </v>
   <v>      -0.00313249       0.00172944       0.02180879 </v>
  </varray>
  <varray name="stress" >
   <v>      -0.29322896      -0.03273011      -0.03714163 </v>
   <v>      -0.03273012      -0.17395220       0.23081612 </v>
   <v>      -0.03714162       0.23081612      -0.12962757 </v>
  </varray>
  <energy>
   <i name="e_fr_energy">   -100.55722937 </i>
   <i name="e_wo_entrp">   -100.56302728 </i>
   <i name="e_0_energy">   -100.55916201 </i>
   <i name="kinetic">      0.96998927 </i>
   <i name="lattice kinetic">      0.00000000 </i>
   <i name="nosepot">      0.00000000 </i>
   <i name="nosekinetic">      0.00000000 </i>
   <i name="total">    -99.58724010 </i>
  </energy>
  <time name="totalsc">   16.62   17.27</time>
 </calculation>
 <calculation>
  <scstep>
   <time name="diag">    0.08    0.08</time>
   <time name="diis">    0.24    0.25</time>
   <time name="orth">    0.00    0.00</time>
   <time name="total">    0.58    0.59</time>
   <energy>
    <i name="alphaZ">      9.72596956 </i>
    <i name="ewald">   1891.90309906 </i>
    <i name="hartreedc">  -3719.19778565 </i>
    <i name="XCdc">    180.32087694 </i>
    <i name="pawpsdc">   4288.31120972 </i>
    <i name="pawaedc">  -4300.70409950 </i>
    <i name="eentropy">      0.00579791 </i>
    <i name="bandstr">   -609.78620212 </i>
    <i name="atom">   2158.97731088 </i>
    <i name="e_fr_energy">   -100.44382321 </i>
    <i name="e_wo_entrp">   -100.44962112 </i>
    <i name="e_0_energy">   -100.44575585 </i>
   </energy>
  </scstep>
  <scstep>
   <time name="diag">    0.07    0.07</time>
   <time name="diis">    0.26    0.27</time>
   <time name="orth">    0.00    0.00</time>
   <time name="total">    0.59    0.60</time>
   <energy>
    <i name="e_fr_energy">   -100.46545581 </i>
    <i name="e_wo_entrp">   -100.47125372 </i>
    <i name="e_0_energy">   -100.46738845 </i>
   </energy>
  </scstep>
  <scstep>
   <time name="diag">    0.06    0.06</time>
   <time name="diis">    0.24    0.24</time>
   <time name="orth">    0.01    0.01</time>
   <time name="total">    0.54    0.55</time>
   <energy>
    <i name="e_fr_energy">   -100.46816657 </i>
    <i name="e_wo_entrp">   -100.47396448 </i>
    <i name="e_0_energy">   -100.47009921 </i>
   </energy>
  </scstep>
  <scstep>
   <time name="diag">    0.07    0.07</time>
   <time name="diis">    0.22    0.23</time>
   <time name="orth">    0.00    0.00</time>
   <time name="total">    0.50    0.51</time>
   <energy>
    <i name="e_fr_energy">   -100.46833009 </i>
    <i name="e_wo_entrp">   -100.47412800 </i>
    <i name="e_0_energy">   -100.47026273 </i>
   </energy>
  </scstep>
  <scstep>
   <time name="diag">    0.07    0.07</time>
   <time name="diis">    0.32    0.33</time>
   <time name="orth">    0.00    0.00</time>
   <time name="total">    0.61    0.62</time>
   <energy>
    <i name="e_fr_energy">   -100.46858204 </i>
    <i name="e_wo_entrp">   -100.47437995 </i>
    <i name="e_0_energy">   -100.47051468 </i>
   </energy>
  </scstep>
  <scstep>
   <time name="diag">    0.07    0.07</time>
   <time name="diis">    0.29    0.30</time>
   <time name="orth">    0.01    0.01</time>
   <time name="total">    0.60    0.61</time>
   <energy>
    <i name="e_fr_energy">   -100.46859919 </i>
    <i name="e_wo_entrp">   -100.47439710 </i>
    <i name="e_0_energy">   -100.47053183 </i>
   </energy>
  </scstep>
  <scstep>
   <time name="diag">    0.07    0.07</time>
   <time name="diis">    0.26    0.26</time>
   <time name="orth">    0.01    0.01</time>
   <time name="total">    0.58    0.59</time>
   <energy>
    <i name="e_fr_energy">   -100.46861859 </i>
    <i name="e_wo_entrp">   -100.47441649 </i>
    <i name="e_0_energy">   -100.47055122 </i>
   </energy>
  </scstep>
  <scstep>
   <time name="diag">    0.05    0.05</time>
   <time name="diis">    0.22    0.22</time>
   <time name="orth">    0.00    0.00</time>
   <time name="total">    0.51    0.52</time>
   <energy>
    <i name="e_fr_energy">   -100.46863445 </i>
    <i name="e_wo_entrp">   -100.47443236 </i>
    <i name="e_0_energy">   -100.47056709 </i>
   </energy>
  </scstep>
  <scstep>
   <time name="diag">    0.07    0.07</time>
   <time name="diis">    0.18    0.18</time>
   <time name="orth">    0.00    0.00</time>
   <time name="total">    0.51    0.51</time>
   <energy>
    <i name="e_fr_energy">   -100.46864639 </i>
    <i name="e_wo_entrp">   -100.47444429 </i>
    <i name="e_0_energy">   -100.47057902 </i>
   </energy>
  </scstep>
  <scstep>
   <time name="diag">    0.08    0.08</time>
   <time name="diis">    0.19    0.19</time>
   <time name="orth">    0.00    0.00</time>
   <time name="total">    0.54    0.54</time>
   <energy>
    <i name="e_fr_energy">   -100.46866413 </i>
    <i name="e_wo_entrp">   -100.47446203 </i>
    <i name="e_0_energy">   -100.47059676 </i>
   </energy>
  </scstep>
  <scstep>
   <time name="diag">    0.07    0.07</time>
   <time name="diis">    0.21    0.21</time>
   <time name="orth">    0.01    0.01</time>
   <time name="total">    0.46    0.47</time>
   <energy>
    <i name="alphaZ">      9.72596956 </i>
    <i name="ewald">   1891.90309906 </i>
    <i name="hartreedc">  -3719.67733007 </i>
    <i name="XCdc">    180.34981303 </i>
    <i name="pawpsdc">   4300.37245684 </i>
    <i name="pawaedc">  -4312.77429431 </i>
    <i name="eentropy">      0.00579791 </i>
    <i name="bandstr">   -609.35149018 </i>
    <i name="atom">   2158.97731088 </i>
    <i name="e_fr_energy">   -100.46866729 </i>
    <i name="e_wo_entrp">   -100.47446519 </i>
    <i name="e_0_energy">   -100.47059992 </i>
   </energy>
  </scstep>
  <structure>
   <crystal>
    <varray name="basis" >
     <v>       7.75760000       0.00000000       0.00000000 </v>
     <v>       0.00000000      11.70620000       0.00000000 </v>
     <v>       0.00000000       0.00000000      11.32900000 </v>
    </varray>
    <i name="volume">   1028.80934195 </i>
    <varray name="rec_basis" >
     <v>       0.12890585       0.00000000       0.00000000 </v>
     <v>       0.00000000       0.08542482       0.00000000 </v>
     <v>       0.00000000       0.00000000       0.08826904 </v>
    </varray>
   </crystal>
   <varray name="positions" >
    <v>       0.49905277       0.70936853       0.54283724 </v>
    <v>       0.50036671       0.58062867       0.54636592 </v>
    <v>       0.49829586       0.51848562       0.44315732 </v>
    <v>       0.49832431       0.39792218       0.44145360 </v>
    <v>       0.50025013       0.39809278       0.64349888 </v>
    <v>       0.49915480       0.51685707       0.65022735 </v>
    <v>       0.50064793       0.57330217       0.33558775 </v>
    <v>       0.61773489       0.74111402       0.49311025 </v>
    <v>       0.38639375       0.74489844       0.49693399 </v>
    <v>       0.50050977       0.74201963       0.62977305 </v>
    <v>       0.53427060       0.38000005       0.26371377 </v>
    <v>       0.52695140       0.25455616       0.34343889 </v>
    <v>       0.49850746       0.34711697       0.72599104 </v>
    <v>       0.50386857       0.56097423       0.73311760 </v>
    <v>       0.49310718       0.33783974       0.33605832 </v>
    <v>       0.50093045       0.33839033       0.54346540 </v>
   </varray>
  </structure>
  <varray name="forces" >
   <v>       1.05417509      -0.31157154      -1.62063148 </v>
   <v>      -0.30296578       0.56500398      -0.47507173 </v>
   <v>       0.05249573      -0.56116729      -0.41412116 </v>
   <v>       0.12485537      -0.14804105      -0.00647072 </v>
   <v>      -0.08559636      -0.12928712       0.91064512 </v>
   <v>       0.14270401      -0.29735596      -0.15970532 </v>
   <v>      -0.05075524       0.11413315      -0.02018378 </v>
   <v>      -0.94198074      -0.27125066       0.61194253 </v>
   <v>      -0.01469884      -0.15110918      -0.07818698 </v>
   <v>       0.10838018       0.61456223       1.30037797 </v>
   <v>       0.05579155       0.01593550      -0.20802531 </v>
   <v>       0.03207458      -0.03365804      -0.04595875 </v>
   <v>       0.06892478       0.22188763      -0.39348323 </v>
   <v>      -0.06642669       0.17457738       0.64923042 </v>
   <v>      -0.09901879       0.22646329       0.56263327 </v>
   <v>      -0.09287952       0.03562421      -0.63099782 </v>
  </varray>
  <varray name="stress" >
   <v>      -1.56332085      -0.17654167       0.86957036 </v>
   <v>      -0.17654168      -0.66923618       1.96403990 </v>
   <v>       0.86957036       1.96403993       3.41944139 </v>
  </varray>
  <energy>
   <i name="e_fr_energy">   -100.46866729 </i>
   <i name="e_wo_entrp">   -100.47446519 </i>
   <i name="e_0_energy">   -100.47059992 </i>
   <i name="kinetic">      0.88629276 </i>
   <i name="lattice kinetic">      0.00000000 </i>
   <i name="nosepot">      0.00001321 </i>
   <i name="nosekinetic">      0.00000001 </i>
   <i name="total">    -99.58236130 </i>
  </energy>
  <time name="totalsc">    7.11    7.30</time>
 </calculation>
 <calculation>
  <scstep>
   <time name="diag">    0.05    0.05</time>
   <time name="diis">    0.28    0.28</time>
   <time name="orth">    0.01    0.01</time>
   <time name="total">    0.56    0.57</time>
   <energy>
    <i name="alphaZ">      9.72596956 </i>
    <i name="ewald">   1893.98851839 </i>
    <i name="hartreedc">  -3721.58780728 </i>
    <i name="XCdc">    180.39859792 </i>
    <i name="pawpsdc">   4311.27311344 </i>
    <i name="pawaedc">  -4323.68291669 </i>
    <i name="eentropy">      0.00579791 </i>
    <i name="bandstr">   -609.37928919 </i>
    <i name="atom">   2158.97731088 </i>
    <i name="e_fr_energy">   -100.28070506 </i>
    <i name="e_wo_entrp">   -100.28650297 </i>
    <i name="e_0_energy">   -100.28263770 </i>
   </energy>
  </scstep>
  <scstep>
   <time name="diag">    0.05    0.05</time>
   <time name="diis">    0.27    0.28</time>
   <time name="orth">    0.01    0.01</time>
   <time name="total">    0.57    0.58</time>
   <energy>
    <i name="e_fr_energy">   -100.28169925 </i>
    <i name="e_wo_entrp">   -100.28749716 </i>
    <i name="e_0_energy">   -100.28363189 </i>
   </energy>
  </scstep>
  <scstep>
   <time name="diag">    0.08    0.08</time>
   <time name="diis">    0.30    0.31</time>
   <time name="orth">    0.01    0.01</time>
   <time name="total">    0.63    0.64</time>
   <energy>
    <i name="e_fr_energy">   -100.28188352 </i>
    <i name="e_wo_entrp">   -100.28768142 </i>
    <i name="e_0_energy">   -100.28381615 </i>
   </energy>
  </scstep>
  <scstep>
   <time name="diag">    0.06    0.06</time>
   <time name="diis">    0.23    0.23</time>
   <time name="orth">    0.00    0.00</time>
   <time name="total">    0.51    0.52</time>
   <energy>
    <i name="e_fr_energy">   -100.28189477 </i>
    <i name="e_wo_entrp">   -100.28769268 </i>
    <i name="e_0_energy">   -100.28382741 </i>
   </energy>
  </scstep>
  <scstep>
   <time name="diag">    0.05    0.05</time>
   <time name="diis">    0.20    0.20</time>
   <time name="orth">    0.00    0.00</time>
   <time name="total">    0.49    0.50</time>
   <energy>
    <i name="e_fr_energy">   -100.28190603 </i>
    <i name="e_wo_entrp">   -100.28770394 </i>
    <i name="e_0_energy">   -100.28383867 </i>
   </energy>
  </scstep>
  <scstep>
   <time name="diag">    0.08    0.08</time>
   <time name="diis">    0.21    0.21</time>
   <time name="orth">    0.00    0.00</time>
   <time name="total">    0.51    0.52</time>
   <energy>
    <i name="alphaZ">      9.72596956 </i>
    <i name="ewald">   1893.98851839 </i>
    <i name="hartreedc">  -3721.39873502 </i>
    <i name="XCdc">    180.38548761 </i>
    <i name="pawpsdc">   4311.16238382 </i>
    <i name="pawaedc">  -4323.57217551 </i>
    <i name="eentropy">      0.00579791 </i>
    <i name="bandstr">   -609.55646507 </i>
    <i name="atom">   2158.97731088 </i>
    <i name="e_fr_energy">   -100.28190742 </i>
    <i name="e_wo_entrp">   -100.28770533 </i>
    <i name="e_0_energy">   -100.28384006 </i>
   </energy>
  </scstep>
  <structure>
   <crystal>
    <varray name="basis" >
     <v>       7.75760000       0.00000000       0.00000000 </v>
     <v>       0.00000000      11.70620000       0.00000000 </v>
     <v>       0.00000000       0.00000000      11.32900000 </v>
    </varray>
    <i name="volume">   1028.80934195 </i>
    <varray name="rec_basis" >
     <v>       0.12890585       0.00000000       0.00000000 </v>
     <v>       0.00000000       0.08542482       0.00000000 </v>
     <v>       0.00000000       0.00000000       0.08826904 </v>
    </varray>
   </crystal>
   <varray name="positions" >
    <v>       0.49828060       0.70963484       0.54251052 </v>
    <v>       0.50118852       0.58046075       0.54700436 </v>
    <v>       0.49752941       0.51896176       0.44398594 </v>
    <v>       0.49755100       0.39798978       0.44138954 </v>
    <v>       0.49988429       0.39827844       0.64272905 </v>
    <v>       0.49865103       0.51701889       0.64963699 </v>
    <v>       0.50112481       0.57312590       0.33612262 </v>
    <v>       0.62051166       0.74037879       0.49078614 </v>
    <v>       0.38658569       0.74775436       0.49772001 </v>
    <v>       0.50099178       0.74054912       0.62775011 </v>
    <v>       0.53470899       0.37995159       0.26350553 </v>
    <v>       0.52597168       0.25388851       0.34325950 </v>
    <v>       0.49523374       0.34768910       0.72656055 </v>
    <v>       0.50780693       0.56217757       0.73060574 </v>
    <v>       0.49409652       0.33741686       0.33544946 </v>
    <v>       0.50106311       0.33808136       0.54401280 </v>
   </varray>
  </structure>
  <varray name="forces" >
   <v>       1.68401593      -0.61071389      -2.74778490 </v>
   <v>      -0.58693886       1.07488723      -0.98055109 </v>
   <v>       0.11694247      -1.10353127      -0.84181988 </v>
   <v>       0.25054075      -0.26783571       0.01210876 </v>
   <v>      -0.17215230      -0.19864968       1.65704758 </v>
   <v>       0.25617756      -0.53037929      -0.08859180 </v>
   <v>      -0.07044938       0.19478219      -0.02176315 </v>
   <v>      -1.48337852      -0.37959225       0.98113616 </v>
   <v>      -0.02771293      -0.31366011      -0.14001010 </v>
   <v>       0.22348186       1.06255886       2.29386325 </v>
   <v>       0.10683335       0.03180901      -0.31471341 </v>
   <v>       0.06512566      -0.02898339      -0.06602606 </v>
   <v>       0.14810600       0.35372332      -0.64128650 </v>
   <v>      -0.11007672       0.26706217       1.11413758 </v>
   <v>      -0.21292838       0.44557404       1.00863873 </v>
   <v>      -0.18034050       0.05032656      -1.23948146 </v>
  </varray>
  <varray name="stress" >
   <v>      -2.38069729      -0.05616371       1.60481689 </v>
   <v>      -0.05616369      -1.10312463       3.01423247 </v>
   <v>       1.60481687       3.01423248       6.32983730 </v>
  </varray>
  <energy>
   <i name="e_fr_energy">   -100.28190742 </i>
   <i name="e_wo_entrp">   -100.28770533 </i>
   <i name="e_0_energy">   -100.28384006 </i>
   <i name="kinetic">      0.71180867 </i>
   <i name="lattice kinetic">      0.00000000 </i>
   <i name="nosepot">     -0.00188518 </i>
   <i name="nosekinetic">      0.00030553 </i>
   <i name="total">    -99.57167841 </i>
  </energy>
  <time name="totalsc">    4.39    4.48</time>
 </calculation>
 <calculation>
  <scstep>
   <time name="diag">    0.08    0.08</time>
   <time name="diis">    0.29    0.29</time>
   <time name="orth">    0.00    0.00</time>
   <time name="total">    0.60    0.61</time>
   <energy>
    <i name="alphaZ">      9.72596956 </i>
    <i name="ewald">   1894.34433082 </i>
    <i name="hartreedc">  -3721.69064447 </i>
    <i name="XCdc">    180.35876032 </i>
    <i name="pawpsdc">   4317.92973816 </i>
    <i name="pawaedc">  -4330.34470294 </i>
    <i name="eentropy">      0.00579791 </i>
    <i name="bandstr">   -609.45846080 </i>
    <i name="atom">   2158.97731088 </i>
    <i name="e_fr_energy">   -100.15190057 </i>
    <i name="e_wo_entrp">   -100.15769848 </i>
    <i name="e_0_energy">   -100.15383321 </i>
   </energy>
  </scstep>
  <scstep>
   <time name="diag">    0.07    0.07</time>
   <time name="diis">    0.28    0.28</time>
   <time name="orth">    0.00    0.01</time>
   <time name="total">    0.57    0.58</time>
   <energy>
    <i name="e_fr_energy">   -100.15250276 </i>
    <i name="e_wo_entrp">   -100.15830066 </i>
    <i name="e_0_energy">   -100.15443539 </i>
   </energy>
  </scstep>
  <scstep>
   <time name="diag">    0.04    0.04</time>
   <time name="diis">    0.28    0.29</time>
   <time name="orth">    0.01    0.01</time>
   <time name="total">    0.58    0.59</time>
   <energy>
    <i name="e_fr_energy">   -100.15258449 </i>
    <i name="e_wo_entrp">   -100.15838239 </i>
    <i name="e_0_energy">   -100.15451712 </i>
   </energy>
  </scstep>
  <scstep>
   <time name="diag">    0.08    0.08</time>
   <time name="diis">    0.27    0.28</time>
   <time name="orth">    0.00    0.00</time>
   <time name="total">    0.59    0.60</time>
   <energy>
    <i name="e_fr_energy">   -100.15261333 </i>
    <i name="e_wo_entrp">   -100.15841123 </i>
    <i name="e_0_energy">   -100.15454596 </i>
   </energy>
  </scstep>
  <scstep>
   <time name="diag">    0.07    0.07</time>
   <time name="diis">    0.20    0.20</time>
   <time name="orth">    0.00    0.00</time>
   <time name="total">    0.48    0.48</time>
   <energy>
    <i name="e_fr_energy">   -100.15261895 </i>
    <i name="e_wo_entrp">   -100.15841686 </i>
    <i name="e_0_energy">   -100.15455159 </i>
   </energy>
  </scstep>
  <scstep>
   <time name="diag">    0.06    0.07</time>
   <time name="diis">    0.18    0.18</time>
   <time name="orth">    0.00    0.00</time>
   <time name="total">    0.41    0.41</time>
   <energy>
    <i name="alphaZ">      9.72596956 </i>
    <i name="ewald">   1894.34433082 </i>
    <i name="hartreedc">  -3721.66134266 </i>
    <i name="XCdc">    180.35998402 </i>
    <i name="pawpsdc">   4311.42217329 </i>
    <i name="pawaedc">  -4323.83236885 </i>
    <i name="eentropy">      0.00579791 </i>
    <i name="bandstr">   -609.49447997 </i>
    <i name="atom">   2158.97731088 </i>
    <i name="e_fr_energy">   -100.15262501 </i>
    <i name="e_wo_entrp">   -100.15842292 </i>
    <i name="e_0_energy">   -100.15455765 </i>
   </energy>
  </scstep>
  <structure>
   <crystal>
    <varray name="basis" >
     <v>       7.75760000       0.00000000       0.00000000 </v>
     <v>       0.00000000      11.70620000       0.00000000 </v>
     <v>       0.00000000       0.00000000      11.32900000 </v>
    </varray>
    <i name="volume">   1028.80934195 </i>
    <varray name="rec_basis" >
     <v>       0.12890585       0.00000000       0.00000000 </v>
     <v>       0.00000000       0.08542482       0.00000000 </v>
     <v>       0.00000000       0.00000000       0.08826904 </v>
    </varray>
   </crystal>
   <varray name="positions" >
    <v>       0.49768138       0.70985942       0.54198823 </v>
    <v>       0.50195103       0.58036603       0.54757456 </v>
    <v>       0.49677351       0.51936273       0.44475655 </v>
    <v>       0.49680206       0.39803880       0.44132632 </v>
    <v>       0.49949980       0.39845051       0.64207543 </v>
    <v>       0.49817274       0.51714429       0.64903928 </v>
    <v>       0.50159795       0.57295742       0.33665767 </v>
    <v>       0.62144706       0.73932862       0.48929397 </v>
    <v>       0.38674344       0.75035682       0.49838832 </v>
    <v>       0.50175290       0.73995204       0.62767881 </v>
    <v>       0.53528117       0.37992896       0.26302869 </v>
    <v>       0.52507104       0.25319533       0.34302357 </v>
    <v>       0.49213788       0.34855389       0.72658459 </v>
    <v>       0.51161594       0.56360332       0.72903882 </v>
    <v>       0.49506880       0.33701908       0.33490092 </v>
    <v>       0.50117992       0.33777442       0.54448591 </v>
   </varray>
  </structure>
  <varray name="forces" >
   <v>       1.98425060      -0.58917979      -2.62424652 </v>
   <v>      -0.85308970       1.51309132      -1.47778054 </v>
   <v>       0.16065968      -1.56392062      -1.23845050 </v>
   <v>       0.37680193      -0.38422326       0.02612363 </v>
   <v>      -0.25142415      -0.18268199       2.17849509 </v>
   <v>       0.36556221      -0.53415021       0.36694492 </v>
   <v>      -0.09869963       0.27105513      -0.04637239 </v>
   <v>      -1.65889406      -0.34924186       1.12049412 </v>
   <v>      -0.03729313      -0.45876536      -0.16793775 </v>
   <v>       0.29427830       1.08856650       2.22320879 </v>
   <v>       0.10753867      -0.01716424      -0.28982152 </v>
   <v>       0.08547581       0.00889363      -0.08148580 </v>
   <v>       0.22326025       0.36380853      -0.69991157 </v>
   <v>      -0.16741496       0.15826987       1.17811811 </v>
   <v>      -0.27089604       0.66779774       1.28034169 </v>
   <v>      -0.26340054       0.05902966      -1.76959334 </v>
  </varray>
  <varray name="stress" >
   <v>      -2.67415809       0.19752837       1.95394971 </v>
   <v>       0.19752837      -1.61628103       2.84230147 </v>
   <v>       1.95394971       2.84230147       7.28983511 </v>
  </varray>
  <energy>
   <i name="e_fr_energy">   -100.15262501 </i>
   <i name="e_wo_entrp">   -100.15842292 </i>
   <i name="e_0_energy">   -100.15455765 </i>
   <i name="kinetic">      0.58959696 </i>
   <i name="lattice kinetic">      0.00000000 </i>
   <i name="nosepot">     -0.00973777 </i>
   <i name="nosekinetic">      0.00295107 </i>
   <i name="total">    -99.56981476 </i>
  </energy>
  <time name="totalsc">    4.34    4.47</time>
 </calculation>
 <calculation>
  <scstep>
   <time name="diag">    0.07    0.07</time>
   <time name="diis">    0.28    0.29</time>
   <time name="orth">    0.00    0.00</time>
   <time name="total">    0.58    0.60</time>
   <energy>
    <i name="alphaZ">      9.72596956 </i>
    <i name="ewald">   1893.15110021 </i>
    <i name="hartreedc">  -3720.55631923 </i>
    <i name="XCdc">    180.27722291 </i>
    <i name="pawpsdc">   4301.46465326 </i>
    <i name="pawaedc">  -4313.86772850 </i>
    <i name="eentropy">      0.00579791 </i>
    <i name="bandstr">   -609.29195938 </i>
    <i name="atom">   2158.97731088 </i>
    <i name="e_fr_energy">   -100.11395238 </i>
    <i name="e_wo_entrp">   -100.11975029 </i>
    <i name="e_0_energy">   -100.11588502 </i>
   </energy>
  </scstep>
  <scstep>
   <time name="diag">    0.07    0.07</time>
   <time name="diis">    0.29    0.29</time>
   <time name="orth">    0.00    0.00</time>
   <time name="total">    0.61    0.62</time>
   <energy>
    <i name="e_fr_energy">   -100.11405307 </i>
    <i name="e_wo_entrp">   -100.11985098 </i>
    <i name="e_0_energy">   -100.11598571 </i>
   </energy>
  </scstep>
  <scstep>
   <time name="diag">    0.07    0.07</time>
   <time name="diis">    0.29    0.30</time>
   <time name="orth">    0.00    0.01</time>
   <time name="total">    0.58    0.59</time>
   <energy>
    <i name="e_fr_energy">   -100.11409085 </i>
    <i name="e_wo_entrp">   -100.11988875 </i>
    <i name="e_0_energy">   -100.11602348 </i>
   </energy>
  </scstep>
  <scstep>
   <time name="diag">    0.05    0.05</time>
   <time name="diis">    0.24    0.24</time>
   <time name="orth">    0.01    0.01</time>
   <time name="total">    0.52    0.53</time>
   <energy>
    <i name="e_fr_energy">   -100.11410167 </i>
    <i name="e_wo_entrp">   -100.11989957 </i>
    <i name="e_0_energy">   -100.11603430 </i>
   </energy>
  </scstep>
  <scstep>
   <time name="diag">    0.08    0.08</time>
   <time name="diis">    0.20    0.21</time>
   <time name="orth">    0.00    0.00</time>
   <time name="total">    0.52    0.53</time>
   <energy>
    <i name="e_fr_energy">   -100.11410665 </i>
    <i name="e_wo_entrp">   -100.11990455 </i>
    <i name="e_0_energy">   -100.11603928 </i>
   </energy>
  </scstep>
  <scstep>
   <time name="diag">    0.04    0.04</time>
   <time name="diis">    0.18    0.18</time>
   <time name="orth">    0.00    0.00</time>
   <time name="total">    0.42    0.43</time>
   <energy>
    <i name="alphaZ">      9.72596956 </i>
    <i name="ewald">   1893.15110021 </i>
    <i name="hartreedc">  -3720.67271169 </i>
    <i name="XCdc">    180.28471097 </i>
    <i name="pawpsdc">   4303.29001272 </i>
    <i name="pawaedc">  -4315.69444253 </i>
    <i name="eentropy">      0.00579791 </i>
    <i name="bandstr">   -609.18185766 </i>
    <i name="atom">   2158.97731088 </i>
    <i name="e_fr_energy">   -100.11410965 </i>
    <i name="e_wo_entrp">   -100.11990755 </i>
    <i name="e_0_energy">   -100.11604228 </i>
   </energy>
  </scstep>
  <structure>
   <crystal>
    <varray name="basis" >
     <v>       7.75760000       0.00000000       0.00000000 </v>
     <v>       0.00000000      11.70620000       0.00000000 </v>
     <v>       0.00000000       0.00000000      11.32900000 </v>
    </varray>
    <i name="volume">   1028.80934195 </i>
    <varray name="rec_basis" >
     <v>       0.12890585       0.00000000       0.00000000 </v>
     <v>       0.00000000       0.08542482       0.00000000 </v>
     <v>       0.00000000       0.00000000       0.08826904 </v>
    </varray>
   </crystal>
   <varray name="positions" >
    <v>       0.49728462       0.71004449       0.54127623 </v>
    <v>       0.50262965       0.58037453       0.54804331 </v>
    <v>       0.49602968       0.51965818       0.44544395 </v>
    <v>       0.49608769       0.39806134       0.44126472 </v>
    <v>       0.49908687       0.39861072       0.64157287 </v>
    <v>       0.49772952       0.51723335       0.64846414 </v>
    <v>       0.50206755       0.57279937       0.33719407 </v>
    <v>       0.62031865       0.73798292       0.48874999 </v>
    <v>       0.38685566       0.75259565       0.49891742 </v>
    <v>       0.50288586       0.74025094       0.62950647 </v>
    <v>       0.53599108       0.37989167       0.26230147 </v>
    <v>       0.52427154       0.25250491       0.34271673 </v>
    <v>       0.48930155       0.34972444       0.72601100 </v>
    <v>       0.51523953       0.56516835       0.72846887 </v>
    <v>       0.49602295       0.33665796       0.33442727 </v>
    <v>       0.50127401       0.33746875       0.54485410 </v>
   </varray>
  </structure>
  <varray name="forces" >
   <v>       2.01354393      -0.28831974      -1.35532444 </v>
   <v>      -1.06957096       1.84213406      -1.87824302 </v>
   <v>       0.21077911      -1.91696739      -1.56371153 </v>
   <v>       0.49254036      -0.49978165       0.04895070 </v>
   <v>      -0.29399104      -0.07346173       2.38079842 </v>
   <v>       0.51773743      -0.33098746       1.15179238 </v>
   <v>      -0.12387624       0.33225960      -0.07755301 </v>
   <v>      -1.49444903      -0.20771600       1.03835544 </v>
   <v>      -0.04751677      -0.58283142      -0.16240368 </v>
   <v>       0.28308929       0.73123925       1.12800433 </v>
   <v>       0.06308227      -0.12087423      -0.14585595 </v>
   <v>       0.09553304       0.07001693      -0.08921650 </v>
   <v>       0.28069991       0.24945698      -0.55494569 </v>
   <v>      -0.27050082      -0.14400962       0.86880082 </v>
   <v>      -0.27958413       0.88978475       1.38000899 </v>
   <v>      -0.34080732       0.07924342      -2.18335180 </v>
  </varray>
  <varray name="stress" >
   <v>      -2.51253370       0.54413382       1.78795911 </v>
   <v>       0.54413385      -2.29436885       1.59378460 </v>
   <v>       1.78795911       1.59378459       6.39950108 </v>
  </varray>
  <energy>
   <i name="e_fr_energy">   -100.11410965 </i>
   <i name="e_wo_entrp">   -100.11990755 </i>
   <i name="e_0_energy">   -100.11604228 </i>
   <i name="kinetic">      0.55466123 </i>
   <i name="lattice kinetic">      0.00000000 </i>
   <i name="nosepot">     -0.02650856 </i>
   <i name="nosekinetic">      0.00980625 </i>
   <i name="total">    -99.57615072 </i>
  </energy>
  <time name="totalsc">    4.19    4.36</time>
 </calculation>
 <calculation>
  <scstep>
   <time name="diag">    0.07    0.07</time>
   <time name="diis">    0.28    0.29</time>
   <time name="orth">    0.00    0.01</time>
   <time name="total">    0.59    0.61</time>
   <energy>
    <i name="alphaZ">      9.72596956 </i>
    <i name="ewald">   1891.75261624 </i>
    <i name="hartreedc">  -3719.28712622 </i>
    <i name="XCdc">    180.19995960 </i>
    <i name="pawpsdc">   4289.44795351 </i>
    <i name="pawaedc">  -4301.84261602 </i>
    <i name="eentropy">      0.00579791 </i>
    <i name="bandstr">   -609.05646071 </i>
    <i name="atom">   2158.97731088 </i>
    <i name="e_fr_energy">   -100.07659525 </i>
    <i name="e_wo_entrp">   -100.08239316 </i>
    <i name="e_0_energy">   -100.07852789 </i>
   </energy>
  </scstep>
  <scstep>
   <time name="diag">    0.07    0.08</time>
   <time name="diis">    0.28    0.29</time>
   <time name="orth">    0.00    0.00</time>
   <time name="total">    0.58    0.60</time>
   <energy>
    <i name="e_fr_energy">   -100.07667017 </i>
    <i name="e_wo_entrp">   -100.08246807 </i>
    <i name="e_0_energy">   -100.07860280 </i>
   </energy>
  </scstep>
  <scstep>
   <time name="diag">    0.05    0.05</time>
   <time name="diis">    0.28    0.29</time>
   <time name="orth">    0.01    0.01</time>
   <time name="total">    0.57    0.59</time>
   <energy>
    <i name="e_fr_energy">   -100.07666545 </i>
    <i name="e_wo_entrp">   -100.08246335 </i>
    <i name="e_0_energy">   -100.07859808 </i>
   </energy>
  </scstep>
  <scstep>
   <time name="diag">    0.05    0.05</time>
   <time name="diis">    0.25    0.25</time>
   <time name="orth">    0.00    0.00</time>
   <time name="total">    0.55    0.56</time>
   <energy>
    <i name="e_fr_energy">   -100.07666770 </i>
    <i name="e_wo_entrp">   -100.08246560 </i>
    <i name="e_0_energy">   -100.07860033 </i>
   </energy>
  </scstep>
  <scstep>
   <time name="diag">    0.05    0.05</time>
   <time name="diis">    0.22    0.22</time>
   <time name="orth">    0.00    0.00</time>
   <time name="total">    0.52    0.53</time>
   <energy>
    <i name="e_fr_energy">   -100.07666803 </i>
    <i name="e_wo_entrp">   -100.08246594 </i>
    <i name="e_0_energy">   -100.07860067 </i>
   </energy>
  </scstep>
  <scstep>
   <time name="diag">    0.06    0.06</time>
   <time name="diis">    0.20    0.21</time>
   <time name="orth">    0.01    0.01</time>
   <time name="total">    0.47    0.48</time>
   <energy>
    <i name="alphaZ">      9.72596956 </i>
    <i name="ewald">   1891.75261624 </i>
    <i name="hartreedc">  -3719.51031094 </i>
    <i name="XCdc">    180.21179037 </i>
    <i name="pawpsdc">   4294.29497792 </i>
    <i name="pawaedc">  -4306.69377871 </i>
    <i name="eentropy">      0.00579791 </i>
    <i name="bandstr">   -608.84104091 </i>
    <i name="atom">   2158.97731088 </i>
    <i name="e_fr_energy">   -100.07666769 </i>
    <i name="e_wo_entrp">   -100.08246559 </i>
    <i name="e_0_energy">   -100.07860032 </i>
   </energy>
  </scstep>
  <structure>
   <crystal>
    <varray name="basis" >
     <v>       7.75760000       0.00000000       0.00000000 </v>
     <v>       0.00000000      11.70620000       0.00000000 </v>
     <v>       0.00000000       0.00000000      11.32900000 </v>
    </varray>
    <i name="volume">   1028.80934195 </i>
    <varray name="rec_basis" >
     <v>       0.12890585       0.00000000       0.00000000 </v>
     <v>       0.00000000       0.08542482       0.00000000 </v>
     <v>       0.00000000       0.00000000       0.08826904 </v>
    </varray>
   </crystal>
   <varray name="positions" >
    <v>       0.49709271       0.71021155       0.54045968 </v>
    <v>       0.50320416       0.58051006       0.54838348 </v>
    <v>       0.49529907       0.51982447       0.44602768 </v>
    <v>       0.49541622       0.39804945       0.44120601 </v>
    <v>       0.49863832       0.39876747       0.64123453 </v>
    <v>       0.49733487       0.51730039       0.64796477 </v>
    <v>       0.50253390       0.57265385       0.33773310 </v>
    <v>       0.61730804       0.73644975       0.48908930 </v>
    <v>       0.38690935       0.75437636       0.49931347 </v>
    <v>       0.50438526       0.74115909       0.63232084 </v>
    <v>       0.53678749       0.37975359       0.26144126 </v>
    <v>       0.52358217       0.25186457       0.34233012 </v>
    <v>       0.48678407       0.35111471       0.72495578 </v>
    <v>       0.51856515       0.56663140       0.72863670 </v>
    <v>       0.49696248       0.33634527       0.33403282 </v>
    <v>       0.50133835       0.33716415       0.54509297 </v>
   </varray>
  </structure>
  <varray name="forces" >
   <v>       1.71590966       0.01358285       0.35391388 </v>
   <v>      -1.25901263       2.03362076      -2.17344541 </v>
   <v>       0.26265035      -2.12663945      -1.80509456 </v>
   <v>       0.60475745      -0.61582261       0.05267058 </v>
   <v>      -0.32894938       0.09561938       2.27246631 </v>
   <v>       0.69086767      -0.02377828       1.99033730 </v>
   <v>      -0.16672190       0.37763333      -0.12815023 </v>
   <v>      -0.95681015       0.04479637       0.71414106 </v>
   <v>      -0.06262713      -0.67956176      -0.13254800 </v>
   <v>       0.20677482       0.27452135      -0.22885182 </v>
   <v>      -0.00096968      -0.23490173       0.04927914 </v>
   <v>       0.09848500       0.13551319      -0.08583226 </v>
   <v>       0.30976663       0.02502753      -0.22146347 </v>
   <v>      -0.41076178      -0.51373288       0.39766445 </v>
   <v>      -0.26365644       1.08389945       1.37118860 </v>
   <v>      -0.41150144       0.12747598      -2.44898368 </v>
  </varray>
  <varray name="stress" >
   <v>      -1.85096089       0.99017513       1.05959681 </v>
   <v>       0.99017513      -2.85944941      -0.30175721 </v>
   <v>       1.05959683      -0.30175720       4.88113982 </v>
  </varray>
  <energy>
   <i name="e_fr_energy">   -100.07666769 </i>
   <i name="e_wo_entrp">   -100.08246559 </i>
   <i name="e_0_energy">   -100.07860032 </i>
   <i name="kinetic">      0.52861850 </i>
   <i name="lattice kinetic">      0.00000000 </i>
   <i name="nosepot">     -0.05322165 </i>
   <i name="nosekinetic">      0.02109325 </i>
   <i name="total">    -99.58017759 </i>
  </energy>
  <time name="totalsc">    4.30    4.46</time>
 </calculation>
 <calculation>
  <scstep>
   <time name="diag">    0.08    0.08</time>
   <time name="diis">    0.27    0.28</time>
   <time name="orth">    0.00    0.00</time>
   <time name="total">    0.59    0.61</time>
   <energy>
    <i name="alphaZ">      9.72596956 </i>
    <i name="ewald">   1891.37632897 </i>
    <i name="hartreedc">  -3718.88881965 </i>
    <i name="XCdc">    180.17462425 </i>
    <i name="pawpsdc">   4285.76604085 </i>
    <i name="pawaedc">  -4298.15984432 </i>
    <i name="eentropy">      0.00579791 </i>
    <i name="bandstr">   -608.95588160 </i>
    <i name="atom">   2158.97731088 </i>
    <i name="e_fr_energy">    -99.97847316 </i>
    <i name="e_wo_entrp">    -99.98427107 </i>
    <i name="e_0_energy">    -99.98040580 </i>
   </energy>
  </scstep>
  <scstep>
   <time name="diag">    0.07    0.07</time>
   <time name="diis">    0.28    0.29</time>
   <time name="orth">    0.00    0.00</time>
   <time name="total">    0.59    0.60</time>
   <energy>
    <i name="e_fr_energy">    -99.97865131 </i>
    <i name="e_wo_entrp">    -99.98444921 </i>
    <i name="e_0_energy">    -99.98058394 </i>
   </energy>
  </scstep>
  <scstep>
   <time name="diag">    0.07    0.07</time>
   <time name="diis">    0.29    0.30</time>
   <time name="orth">    0.00    0.00</time>
   <time name="total">    0.61    0.62</time>
   <energy>
    <i name="e_fr_energy">    -99.97864132 </i>
    <i name="e_wo_entrp">    -99.98443922 </i>
    <i name="e_0_energy">    -99.98057395 </i>
   </energy>
  </scstep>
  <scstep>
   <time name="diag">    0.07    0.07</time>
   <time name="diis">    0.28    0.28</time>
   <time name="orth">    0.01    0.01</time>
   <time name="total">    0.57    0.58</time>
   <energy>
    <i name="e_fr_energy">    -99.97865408 </i>
    <i name="e_wo_entrp">    -99.98445199 </i>
    <i name="e_0_energy">    -99.98058672 </i>
   </energy>
  </scstep>
  <scstep>
   <time name="diag">    0.05    0.05</time>
   <time name="diis">    0.22    0.22</time>
   <time name="orth">    0.01    0.01</time>
   <time name="total">    0.51    0.52</time>
   <energy>
    <i name="e_fr_energy">    -99.97865340 </i>
    <i name="e_wo_entrp">    -99.98445131 </i>
    <i name="e_0_energy">    -99.98058604 </i>
   </energy>
  </scstep>
  <scstep>
   <time name="diag">    0.06    0.06</time>
   <time name="diis">    0.19    0.19</time>
   <time name="orth">    0.00    0.01</time>
   <time name="total">    0.45    0.46</time>
   <energy>
    <i name="alphaZ">      9.72596956 </i>
    <i name="ewald">   1891.37632897 </i>
    <i name="hartreedc">  -3719.13804665 </i>
    <i name="XCdc">    180.18796418 </i>
    <i name="pawpsdc">   4291.23441568 </i>
    <i name="pawaedc">  -4303.63275078 </i>
    <i name="eentropy">      0.00579791 </i>
    <i name="bandstr">   -608.71564404 </i>
    <i name="atom">   2158.97731088 </i>
    <i name="e_fr_energy">    -99.97865429 </i>
    <i name="e_wo_entrp">    -99.98445219 </i>
    <i name="e_0_energy">    -99.98058692 </i>
   </energy>
  </scstep>
  <structure>
   <crystal>
    <varray name="basis" >
     <v>       7.75760000       0.00000000       0.00000000 </v>
     <v>       0.00000000      11.70620000       0.00000000 </v>
     <v>       0.00000000       0.00000000      11.32900000 </v>
    </varray>
    <i name="volume">   1028.80934195 </i>
    <varray name="rec_basis" >
     <v>       0.12890585       0.00000000       0.00000000 </v>
     <v>       0.00000000       0.08542482       0.00000000 </v>
     <v>       0.00000000       0.00000000       0.08826904 </v>
    </varray>
   </crystal>
   <varray name="positions" >
    <v>       0.49707650       0.71038219       0.53965510 </v>
    <v>       0.50365642       0.58078842       0.54857405 </v>
    <v>       0.49458354       0.51984625       0.44649214 </v>
    <v>       0.49479652       0.39799464       0.44115025 </v>
    <v>       0.49814774       0.39893332       0.64105323 </v>
    <v>       0.49700555       0.51736677       0.64759959 </v>
    <v>       0.50299667       0.57252233       0.33827540 </v>
    <v>       0.61304755       0.73492836       0.49004760 </v>
    <v>       0.38688511       0.75562164       0.49960240 </v>
    <v>       0.50616844       0.74231027       0.63498534 </v>
    <v>       0.53759556       0.37941789       0.26060931 </v>
    <v>       0.52300464       0.25132615       0.34186358 </v>
    <v>       0.48461318       0.35254863       0.72369311 </v>
    <v>       0.52143031       0.56769158       0.72914893 </v>
    <v>       0.49789364       0.33609163       0.33371610 </v>
    <v>       0.50136662       0.33686197       0.54518574 </v>
   </varray>
  </structure>
  <varray name="forces" >
   <v>       0.99150165       0.10550917       1.97195293 </v>
   <v>      -1.42045394       2.05327169      -2.30629394 </v>
   <v>       0.31733578      -2.21722525      -1.93483278 </v>
   <v>       0.70072702      -0.72045918       0.06201020 </v>
   <v>      -0.32678534       0.27712936       1.89678684 </v>
   <v>       0.84776311       0.28737552       2.60778220 </v>
   <v>      -0.17978603       0.42028014      -0.21517782 </v>
   <v>      -0.00533092       0.41211548       0.12192433 </v>
   <v>      -0.08529261      -0.74204866      -0.09487212 </v>
   <v>       0.10802331      -0.08471759      -1.26882412 </v>
   <v>      -0.05492026      -0.30661986       0.21245356 </v>
   <v>       0.09731657       0.18394021      -0.06907162 </v>
   <v>       0.30861612      -0.26971295       0.23863017 </v>
   <v>      -0.54983476      -0.81624009      -0.02462727 </v>
   <v>      -0.25289757       1.21934855       1.33332199 </v>
   <v>      -0.47627197       0.21615062      -2.54629475 </v>
  </varray>
  <varray name="stress" >
   <v>      -0.54164490       1.53057080      -0.10542920 </v>
   <v>       1.53057079      -3.11276020      -2.36249648 </v>
   <v>      -0.10542919      -2.36249648       3.92512552 </v>
  </varray>
  <energy>
   <i name="e_fr_energy">    -99.97865429 </i>
   <i name="e_wo_entrp">    -99.98445219 </i>
   <i name="e_0_energy">    -99.98058692 </i>
   <i name="kinetic">      0.45075704 </i>
   <i name="lattice kinetic">      0.00000000 </i>
   <i name="nosepot">     -0.09063212 </i>
   <i name="nosekinetic">      0.03874684 </i>
   <i name="total">    -99.57978253 </i>
  </energy>
  <time name="totalsc">    4.41    4.55</time>
 </calculation>
 <calculation>
  <scstep>
[...]
        <r>  0.0002  0.0001  0.0032  0.0059  0.0000  0.0000  0.0000  0.0000  0.0000 </r>
        <r>  0.0000  0.0001  0.0053  0.0043  0.0000  0.0000  0.0000  0.0000  0.0000 </r>
        <r>  0.0000  0.0000  0.0000  0.0000  0.0000  0.0000  0.0000  0.0000  0.0000 </r>
        <r>  0.0069  0.0003  0.0000  0.0000  0.0000  0.0000  0.0000  0.0000  0.0000 </r>
        <r>  0.0060  0.0000  0.0000  0.0000  0.0000  0.0000  0.0000  0.0000  0.0000 </r>
        <r>  0.0004  0.0000  0.0000  0.0000  0.0000  0.0000  0.0000  0.0000  0.0000 </r>
        <r>  0.0024  0.0000  0.0003  0.0002  0.0000  0.0000  0.0000  0.0000  0.0000 </r>
        <r>  0.0001  0.0000  0.0015  0.0014  0.0000  0.0000  0.0000  0.0000  0.0000 </r>
        <r>  0.0000  0.0000  0.0001  0.0001  0.0000  0.0000  0.0000  0.0000  0.0000 </r>
        <r>  0.0019  0.0027  0.0038  0.0031  0.0000  0.0000  0.0000  0.0000  0.0000 </r>
        <r>  0.0000  0.0003  0.0804  0.0889  0.0000  0.0000  0.0000  0.0000  0.0000 </r>
       </set>
       <set comment="band 26">
        <r>  0.0091  0.0002  0.0004  0.0005  0.0000  0.0000  0.0000  0.0000  0.0000 </r>
        <r>  0.0001  0.0006  0.0014  0.0029  0.0000  0.0000  0.0000  0.0000  0.0000 </r>
        <r>  0.0001  0.0019  0.0078  0.0323  0.0000  0.0000  0.0000  0.0000  0.0000 </r>
        <r>  0.0000  0.0018  0.0383  0.0265  0.0000  0.0000  0.0000  0.0000  0.0000 </r>
        <r>  0.0001  0.0000  0.0211  0.0412  0.0000  0.0000  0.0000  0.0000  0.0000 </r>
        <r>  0.0001  0.0000  0.0332  0.0263  0.0000  0.0000  0.0000  0.0000  0.0000 </r>
        <r>  0.0027  0.0006  0.0069  0.0036  0.0000  0.0000  0.0000  0.0000  0.0000 </r>
        <r>  0.0005  0.0003  0.0000  0.0004  0.0000  0.0000  0.0000  0.0000  0.0000 </r>
        <r>  0.0000  0.0002  0.0001  0.0009  0.0000  0.0000  0.0000  0.0000  0.0000 </r>
        <r>  0.0001  0.0001  0.0004  0.0000  0.0000  0.0000  0.0000  0.0000  0.0000 </r>
        <r>  0.0010  0.0005  0.0000  0.0009  0.0000  0.0000  0.0000  0.0000  0.0000 </r>
        <r>  0.0044  0.0002  0.0004  0.0005  0.0000  0.0000  0.0000  0.0000  0.0000 </r>
        <r>  0.0005  0.0000  0.0015  0.0004  0.0000  0.0000  0.0000  0.0000  0.0000 </r>
        <r>  0.0017  0.0003  0.0005  0.0021  0.0000  0.0000  0.0000  0.0000  0.0000 </r>
        <r>  0.0121  0.0011  0.0054  0.0007  0.0000  0.0000  0.0000  0.0000  0.0000 </r>
        <r>  0.0012  0.0013  0.0010  0.0000  0.0000  0.0000  0.0000  0.0000  0.0000 </r>
       </set>
       <set comment="band 27">
        <r>  0.0073  0.0009  0.0000  0.0000  0.0000  0.0000  0.0000  0.0000  0.0000 </r>
        <r>  0.0000  0.0006  0.0016  0.0032  0.0000  0.0000  0.0000  0.0000  0.0000 </r>
        <r>  0.0000  0.0002  0.0260  0.0097  0.0000  0.0000  0.0000  0.0000  0.0000 </r>
        <r>  0.0001  0.0001  0.0258  0.0306  0.0000  0.0000  0.0000  0.0000  0.0000 </r>
        <r>  0.0001  0.0002  0.0353  0.0195  0.0000  0.0000  0.0000  0.0000  0.0000 </r>
        <r>  0.0033  0.0006  0.0222  0.0447  0.0000  0.0000  0.0000  0.0000  0.0000 </r>
        <r>  0.0019  0.0002  0.0022  0.0037  0.0000  0.0000  0.0000  0.0000  0.0000 </r>
        <r>  0.0000  0.0003  0.0003  0.0002  0.0000  0.0000  0.0000  0.0000  0.0000 </r>
        <r>  0.0003  0.0000  0.0001  0.0005  0.0000  0.0000  0.0000  0.0000  0.0000 </r>
        <r>  0.0000  0.0000  0.0007  0.0000  0.0000  0.0000  0.0000  0.0000  0.0000 </r>
        <r>  0.0001  0.0004  0.0008  0.0002  0.0000  0.0000  0.0000  0.0000  0.0000 </r>
        <r>  0.0011  0.0012  0.0002  0.0000  0.0000  0.0000  0.0000  0.0000  0.0000 </r>
        <r>  0.0000  0.0000  0.0005  0.0016  0.0000  0.0000  0.0000  0.0000  0.0000 </r>
        <r>  0.0001  0.0002  0.0020  0.0011  0.0000  0.0000  0.0000  0.0000  0.0000 </r>
        <r>  0.0014  0.0009  0.0081  0.0107  0.0000  0.0000  0.0000  0.0000  0.0000 </r>
        <r>  0.0007  0.0008  0.0000  0.0002  0.0000  0.0000  0.0000  0.0000  0.0000 </r>
       </set>
       <set comment="band 28">
        <r>  0.0097  0.0075  0.0018  0.0008  0.0000  0.0000  0.0000  0.0000  0.0000 </r>
        <r>  0.0000  0.0000  0.0012  0.0003  0.0000  0.0000  0.0000  0.0000  0.0000 </r>
        <r>  0.0000  0.0027  0.0000  0.0007  0.0000  0.0000  0.0000  0.0000  0.0000 </r>
        <r>  0.0004  0.0013  0.0000  0.0012  0.0000  0.0000  0.0000  0.0000  0.0000 </r>
        <r>  0.0000  0.0007  0.0000  0.0007  0.0000  0.0000  0.0000  0.0000  0.0000 </r>
        <r>  0.0030  0.0037  0.0030  0.0000  0.0000  0.0000  0.0000  0.0000  0.0000 </r>
        <r>  0.0005  0.0026  0.0000  0.0000  0.0000  0.0000  0.0000  0.0000  0.0000 </r>
        <r>  0.0000  0.0005  0.0004  0.0012  0.0000  0.0000  0.0000  0.0000  0.0000 </r>
        <r>  0.0005  0.0002  0.0002  0.0012  0.0000  0.0000  0.0000  0.0000  0.0000 </r>
        <r>  0.0008  0.0000  0.0007  0.0001  0.0000  0.0000  0.0000  0.0000  0.0000 </r>
        <r>  0.0004  0.0015  0.0009  0.0018  0.0000  0.0000  0.0000  0.0000  0.0000 </r>
        <r>  0.0006  0.0029  0.0012  0.0004  0.0000  0.0000  0.0000  0.0000  0.0000 </r>
        <r>  0.0002  0.0001  0.0000  0.0000  0.0000  0.0000  0.0000  0.0000  0.0000 </r>
        <r>  0.0005  0.0010  0.0005  0.0006  0.0000  0.0000  0.0000  0.0000  0.0000 </r>
        <r>  0.0190  0.0003  0.0003  0.0085  0.0000  0.0000  0.0000  0.0000  0.0000 </r>
        <r>  0.0027  0.0037  0.0000  0.0002  0.0000  0.0000  0.0000  0.0000  0.0000 </r>
       </set>
       <set comment="band 29">
        <r>  0.0170  0.0002  0.0011  0.0029  0.0000  0.0000  0.0000  0.0000  0.0000 </r>
        <r>  0.0021  0.0058  0.0000  0.0002  0.0000  0.0000  0.0000  0.0000  0.0000 </r>
        <r>  0.0032  0.0018  0.0022  0.0035  0.0000  0.0000  0.0000  0.0000  0.0000 </r>
        <r>  0.0004  0.0001  0.0001  0.0005  0.0000  0.0000  0.0000  0.0000  0.0000 </r>
        <r>  0.0087  0.0002  0.0036  0.0033  0.0000  0.0000  0.0000  0.0000  0.0000 </r>
        <r>  0.0025  0.0021  0.0037  0.0000  0.0000  0.0000  0.0000  0.0000  0.0000 </r>
        <r>  0.0035  0.0004  0.0017  0.0026  0.0000  0.0000  0.0000  0.0000  0.0000 </r>
        <r>  0.0008  0.0011  0.0001  0.0001  0.0000  0.0000  0.0000  0.0000  0.0000 </r>
        <r>  0.0000  0.0000  0.0000  0.0002  0.0000  0.0000  0.0000  0.0000  0.0000 </r>
        <r>  0.0001  0.0008  0.0017  0.0001  0.0000  0.0000  0.0000  0.0000  0.0000 </r>
        <r>  0.0000  0.0001  0.0000  0.0000  0.0000  0.0000  0.0000  0.0000  0.0000 </r>
        <r>  0.0002  0.0000  0.0001  0.0000  0.0000  0.0000  0.0000  0.0000  0.0000 </r>
        <r>  0.0001  0.0003  0.0017  0.0017  0.0000  0.0000  0.0000  0.0000  0.0000 </r>
        <r>  0.0003  0.0002  0.0010  0.0007  0.0000  0.0000  0.0000  0.0000  0.0000 </r>
        <r>  0.0008  0.0003  0.0001  0.0002  0.0000  0.0000  0.0000  0.0000  0.0000 </r>
        <r>  0.0007  0.0010  0.0001  0.0009  0.0000  0.0000  0.0000  0.0000  0.0000 </r>
       </set>
       <set comment="band 30">
        <r>  0.0004  0.0054  0.0014  0.0036  0.0000  0.0000  0.0000  0.0000  0.0000 </r>
        <r>  0.0016  0.0000  0.0017  0.0000  0.0000  0.0000  0.0000  0.0000  0.0000 </r>
        <r>  0.0018  0.0008  0.0071  0.0004  0.0000  0.0000  0.0000  0.0000  0.0000 </r>
        <r>  0.0005  0.0024  0.0006  0.0005  0.0000  0.0000  0.0000  0.0000  0.0000 </r>
        <r>  0.0002  0.0005  0.0000  0.0001  0.0000  0.0000  0.0000  0.0000  0.0000 </r>
        <r>  0.0001  0.0000  0.0003  0.0006  0.0000  0.0000  0.0000  0.0000  0.0000 </r>
        <r>  0.0061  0.0017  0.0002  0.0006  0.0000  0.0000  0.0000  0.0000  0.0000 </r>
        <r>  0.0001  0.0007  0.0002  0.0001  0.0000  0.0000  0.0000  0.0000  0.0000 </r>
        <r>  0.0003  0.0000  0.0003  0.0004  0.0000  0.0000  0.0000  0.0000  0.0000 </r>
        <r>  0.0000  0.0000  0.0001  0.0002  0.0000  0.0000  0.0000  0.0000  0.0000 </r>
        <r>  0.0000  0.0001  0.0002  0.0009  0.0000  0.0000  0.0000  0.0000  0.0000 </r>
        <r>  0.0002  0.0010  0.0005  0.0003  0.0000  0.0000  0.0000  0.0000  0.0000 </r>
        <r>  0.0002  0.0000  0.0001  0.0000  0.0000  0.0000  0.0000  0.0000  0.0000 </r>
        <r>  0.0007  0.0000  0.0000  0.0000  0.0000  0.0000  0.0000  0.0000  0.0000 </r>
        <r>  0.0000  0.0126  0.0004  0.0000  0.0000  0.0000  0.0000  0.0000  0.0000 </r>
        <r>  0.0001  0.0006  0.0000  0.0000  0.0000  0.0000  0.0000  0.0000  0.0000 </r>
       </set>
       <set comment="band 31">
        <r>  0.0011  0.0016  0.0064  0.0052  0.0000  0.0000  0.0000  0.0000  0.0000 </r>
        <r>  0.0015  0.0002  0.0007  0.0001  0.0000  0.0000  0.0000  0.0000  0.0000 </r>
        <r>  0.0000  0.0000  0.0031  0.0036  0.0000  0.0000  0.0000  0.0000  0.0000 </r>
        <r>  0.0014  0.0001  0.0034  0.0001  0.0000  0.0000  0.0000  0.0000  0.0000 </r>
        <r>  0.0001  0.0000  0.0007  0.0006  0.0000  0.0000  0.0000  0.0000  0.0000 </r>
        <r>  0.0001  0.0000  0.0009  0.0011  0.0000  0.0000  0.0000  0.0000  0.0000 </r>
        <r>  0.0000  0.0000  0.0003  0.0002  0.0000  0.0000  0.0000  0.0000  0.0000 </r>
        <r>  0.0000  0.0001  0.0000  0.0005  0.0000  0.0000  0.0000  0.0000  0.0000 </r>
        <r>  0.0013  0.0002  0.0001  0.0016  0.0000  0.0000  0.0000  0.0000  0.0000 </r>
        <r>  0.0000  0.0003  0.0002  0.0003  0.0000  0.0000  0.0000  0.0000  0.0000 </r>
        <r>  0.0004  0.0004  0.0000  0.0000  0.0000  0.0000  0.0000  0.0000  0.0000 </r>
        <r>  0.0000  0.0005  0.0005  0.0000  0.0000  0.0000  0.0000  0.0000  0.0000 </r>
        <r>  0.0002  0.0000  0.0000  0.0000  0.0000  0.0000  0.0000  0.0000  0.0000 </r>
        <r>  0.0000  0.0000  0.0000  0.0000  0.0000  0.0000  0.0000  0.0000  0.0000 </r>
        <r>  0.0001  0.0002  0.0019  0.0090  0.0000  0.0000  0.0000  0.0000  0.0000 </r>
        <r>  0.0004  0.0002  0.0004  0.0004  0.0000  0.0000  0.0000  0.0000  0.0000 </r>
       </set>
       <set comment="band 32">
        <r>  0.0009  0.0008  0.0168  0.0043  0.0000  0.0000  0.0000  0.0000  0.0000 </r>
        <r>  0.0000  0.0007  0.0003  0.0001  0.0000  0.0000  0.0000  0.0000  0.0000 </r>
        <r>  0.0001  0.0001  0.0006  0.0002  0.0000  0.0000  0.0000  0.0000  0.0000 </r>
        <r>  0.0033  0.0016  0.0002  0.0003  0.0000  0.0000  0.0000  0.0000  0.0000 </r>
        <r>  0.0078  0.0009  0.0017  0.0012  0.0000  0.0000  0.0000  0.0000  0.0000 </r>
        <r>  0.0003  0.0002  0.0037  0.0004  0.0000  0.0000  0.0000  0.0000  0.0000 </r>
        <r>  0.0002  0.0004  0.0002  0.0003  0.0000  0.0000  0.0000  0.0000  0.0000 </r>
        <r>  0.0006  0.0004  0.0004  0.0004  0.0000  0.0000  0.0000  0.0000  0.0000 </r>
        <r>  0.0004  0.0000  0.0006  0.0001  0.0000  0.0000  0.0000  0.0000  0.0000 </r>
        <r>  0.0000  0.0011  0.0016  0.0003  0.0000  0.0000  0.0000  0.0000  0.0000 </r>
        <r>  0.0007  0.0006  0.0010  0.0023  0.0000  0.0000  0.0000  0.0000  0.0000 </r>
        <r>  0.0004  0.0001  0.0000  0.0000  0.0000  0.0000  0.0000  0.0000  0.0000 </r>
        <r>  0.0000  0.0001  0.0010  0.0016  0.0000  0.0000  0.0000  0.0000  0.0000 </r>
        <r>  0.0001  0.0013  0.0001  0.0001  0.0000  0.0000  0.0000  0.0000  0.0000 </r>
        <r>  0.0092  0.0030  0.0021  0.0002  0.0000  0.0000  0.0000  0.0000  0.0000 </r>
        <r>  0.0006  0.0008  0.0005  0.0004  0.0000  0.0000  0.0000  0.0000  0.0000 </r>
       </set>
       <set comment="band 33">
        <r>  0.0001  0.0005  0.0008  0.0000  0.0000  0.0000  0.0000  0.0000  0.0000 </r>
        <r>  0.0012  0.0000  0.0007  0.0004  0.0000  0.0000  0.0000  0.0000  0.0000 </r>
        <r>  0.0002  0.0003  0.0026  0.0006  0.0000  0.0000  0.0000  0.0000  0.0000 </r>
        <r>  0.0000  0.0000  0.0000  0.0035  0.0000  0.0000  0.0000  0.0000  0.0000 </r>
        <r>  0.0006  0.0000  0.0001  0.0017  0.0000  0.0000  0.0000  0.0000  0.0000 </r>
        <r>  0.0017  0.0011  0.0056  0.0005  0.0000  0.0000  0.0000  0.0000  0.0000 </r>
        <r>  0.0009  0.0004  0.0001  0.0008  0.0000  0.0000  0.0000  0.0000  0.0000 </r>
        <r>  0.0001  0.0005  0.0000  0.0000  0.0000  0.0000  0.0000  0.0000  0.0000 </r>
        <r>  0.0001  0.0000  0.0000  0.0000  0.0000  0.0000  0.0000  0.0000  0.0000 </r>
        <r>  0.0000  0.0001  0.0001  0.0000  0.0000  0.0000  0.0000  0.0000  0.0000 </r>
        <r>  0.0000  0.0001  0.0000  0.0000  0.0000  0.0000  0.0000  0.0000  0.0000 </r>
        <r>  0.0003  0.0001  0.0000  0.0000  0.0000  0.0000  0.0000  0.0000  0.0000 </r>
        <r>  0.0003  0.0000  0.0005  0.0002  0.0000  0.0000  0.0000  0.0000  0.0000 </r>
        <r>  0.0004  0.0001  0.0003  0.0007  0.0000  0.0000  0.0000  0.0000  0.0000 </r>
        <r>  0.0008  0.0014  0.0013  0.0019  0.0000  0.0000  0.0000  0.0000  0.0000 </r>
        <r>  0.0007  0.0000  0.0001  0.0000  0.0000  0.0000  0.0000  0.0000  0.0000 </r>
       </set>
       <set comment="band 34">
        <r>  0.0043  0.0013  0.0002  0.0011  0.0000  0.0000  0.0000  0.0000  0.0000 </r>
        <r>  0.0003  0.0022  0.0000  0.0018  0.0000  0.0000  0.0000  0.0000  0.0000 </r>
        <r>  0.0001  0.0000  0.0017  0.0039  0.0000  0.0000  0.0000  0.0000  0.0000 </r>
        <r>  0.0001  0.0001  0.0005  0.0009  0.0000  0.0000  0.0000  0.0000  0.0000 </r>
        <r>  0.0004  0.0000  0.0002  0.0001  0.0000  0.0000  0.0000  0.0000  0.0000 </r>
        <r>  0.0004  0.0000  0.0001  0.0025  0.0000  0.0000  0.0000  0.0000  0.0000 </r>
        <r>  0.0006  0.0000  0.0001  0.0003  0.0000  0.0000  0.0000  0.0000  0.0000 </r>
        <r>  0.0012  0.0000  0.0000  0.0000  0.0000  0.0000  0.0000  0.0000  0.0000 </r>
        <r>  0.0000  0.0000  0.0011  0.0004  0.0000  0.0000  0.0000  0.0000  0.0000 </r>
        <r>  0.0031  0.0004  0.0000  0.0003  0.0000  0.0000  0.0000  0.0000  0.0000 </r>
        <r>  0.0000  0.0002  0.0000  0.0005  0.0000  0.0000  0.0000  0.0000  0.0000 </r>
        <r>  0.0019  0.0016  0.0008  0.0001  0.0000  0.0000  0.0000  0.0000  0.0000 </r>
        <r>  0.0003  0.0000  0.0000  0.0001  0.0000  0.0000  0.0000  0.0000  0.0000 </r>
        <r>  0.0000  0.0002  0.0001  0.0000  0.0000  0.0000  0.0000  0.0000  0.0000 </r>
        <r>  0.0004  0.0033  0.0028  0.0020  0.0000  0.0000  0.0000  0.0000  0.0000 </r>
        <r>  0.0007  0.0012  0.0001  0.0001  0.0000  0.0000  0.0000  0.0000  0.0000 </r>
       </set>
       <set comment="band 35">
        <r>  0.0044  0.0004  0.0006  0.0028  0.0000  0.0000  0.0000  0.0000  0.0000 </r>
        <r>  0.0000  0.0005  0.0040  0.0037  0.0000  0.0000  0.0000  0.0000  0.0000 </r>
        <r>  0.0019  0.0009  0.0211  0.0004  0.0000  0.0000  0.0000  0.0000  0.0000 </r>
        <r>  0.0000  0.0007  0.0004  0.0107  0.0000  0.0000  0.0000  0.0000  0.0000 </r>
        <r>  0.0002  0.0004  0.0014  0.0154  0.0000  0.0000  0.0000  0.0000  0.0000 </r>
        <r>  0.0001  0.0004  0.0042  0.0020  0.0000  0.0000  0.0000  0.0000  0.0000 </r>
        <r>  0.0012  0.0015  0.0021  0.0026  0.0000  0.0000  0.0000  0.0000  0.0000 </r>
        <r>  0.0004  0.0001  0.0000  0.0000  0.0000  0.0000  0.0000  0.0000  0.0000 </r>
        <r>  0.0003  0.0000  0.0003  0.0013  0.0000  0.0000  0.0000  0.0000  0.0000 </r>
        <r>  0.0000  0.0000  0.0003  0.0001  0.0000  0.0000  0.0000  0.0000  0.0000 </r>
        <r>  0.0001  0.0000  0.0001  0.0006  0.0000  0.0000  0.0000  0.0000  0.0000 </r>
        <r>  0.0010  0.0000  0.0004  0.0000  0.0000  0.0000  0.0000  0.0000  0.0000 </r>
        <r>  0.0003  0.0000  0.0008  0.0002  0.0000  0.0000  0.0000  0.0000  0.0000 </r>
        <r>  0.0000  0.0005  0.0001  0.0011  0.0000  0.0000  0.0000  0.0000  0.0000 </r>
        <r>  0.0002  0.0057  0.0012  0.0001  0.0000  0.0000  0.0000  0.0000  0.0000 </r>
        <r>  0.0004  0.0000  0.0027  0.0002  0.0000  0.0000  0.0000  0.0000  0.0000 </r>
       </set>
       <set comment="band 36">
        <r>  0.0001  0.0019  0.0004  0.0007  0.0000  0.0000  0.0000  0.0000  0.0000 </r>
        <r>  0.0029  0.0021  0.0000  0.0005  0.0000  0.0000  0.0000  0.0000  0.0000 </r>
        <r>  0.0002  0.0027  0.0001  0.0048  0.0000  0.0000  0.0000  0.0000  0.0000 </r>
        <r>  0.0003  0.0005  0.0002  0.0020  0.0000  0.0000  0.0000  0.0000  0.0000 </r>
        <r>  0.0001  0.0001  0.0002  0.0002  0.0000  0.0000  0.0000  0.0000  0.0000 </r>
        <r>  0.0003  0.0000  0.0000  0.0000  0.0000  0.0000  0.0000  0.0000  0.0000 </r>
        <r>  0.0001  0.0000  0.0014  0.0069  0.0000  0.0000  0.0000  0.0000  0.0000 </r>
        <r>  0.0010  0.0004  0.0000  0.0000  0.0000  0.0000  0.0000  0.0000  0.0000 </r>
        <r>  0.0047  0.0000  0.0008  0.0000  0.0000  0.0000  0.0000  0.0000  0.0000 </r>
        <r>  0.0004  0.0001  0.0000  0.0009  0.0000  0.0000  0.0000  0.0000  0.0000 </r>
        <r>  0.0045  0.0020  0.0005  0.0023  0.0000  0.0000  0.0000  0.0000  0.0000 </r>
        <r>  0.0006  0.0001  0.0001  0.0017  0.0000  0.0000  0.0000  0.0000  0.0000 </r>
        <r>  0.0000  0.0002  0.0000  0.0000  0.0000  0.0000  0.0000  0.0000  0.0000 </r>
        <r>  0.0000  0.0000  0.0000  0.0002  0.0000  0.0000  0.0000  0.0000  0.0000 </r>
        <r>  0.0005  0.0035  0.0036  0.0078  0.0000  0.0000  0.0000  0.0000  0.0000 </r>
        <r>  0.0001  0.0002  0.0001  0.0040  0.0000  0.0000  0.0000  0.0000  0.0000 </r>
       </set>
      </set>
     </set>
    </set>
   </array>
  </projected>
 </calculation>
 <structure name="finalpos" >
  <crystal>
   <varray name="basis" >
    <v>       7.75760000       0.00000000       0.00000000 </v>
    <v>       0.00000000      11.70620000       0.00000000 </v>
    <v>       0.00000000       0.00000000      11.32900000 </v>
   </varray>
   <i name="volume">   1028.80934195 </i>
   <varray name="rec_basis" >
    <v>       0.12890585       0.00000000       0.00000000 </v>
    <v>       0.00000000       0.08542482       0.00000000 </v>
    <v>       0.00000000       0.00000000       0.08826904 </v>
   </varray>
  </crystal>
  <varray name="positions" >
   <v>       0.51065383       0.71256574       0.49043721 </v>
   <v>       0.44851527       0.58373820       0.51957022 </v>
   <v>       0.54197408       0.50786492       0.45406988 </v>
   <v>       0.53355375       0.39178436       0.46428447 </v>
   <v>       0.32867921       0.42287227       0.61234662 </v>
   <v>       0.32648091       0.54184167       0.59858699 </v>
   <v>       0.65257413       0.55456215       0.37406935 </v>
   <v>       0.42852071       0.78499256       0.53750293 </v>
   <v>       0.64644815       0.70239898       0.52285347 </v>
   <v>       0.50332784       0.74358463       0.40097220 </v>
   <v>       0.72670928       0.36799220       0.36435956 </v>
   <v>       0.68062002       0.24934575       0.44613123 </v>
   <v>       0.23330573       0.40038831       0.67391080 </v>
   <v>       0.26827071       0.60145612       0.65501820 </v>
   <v>       0.63591393       0.31620851       0.39849172 </v>
   <v>       0.41991585       0.34604854       0.54492789 </v>
  </varray>
  <varray name="velocities" >
   <v>       0.00010398      -0.00013696      -0.00030714 </v>
   <v>       0.00049718      -0.00035665       0.00032962 </v>
   <v>       0.00051661       0.00027444       0.00035395 </v>
   <v>       0.00044581       0.00002137      -0.00007283 </v>
   <v>      -0.00112876       0.00020497      -0.00070761 </v>
   <v>      -0.00020907      -0.00050578      -0.00037685 </v>
   <v>      -0.00019107      -0.00005778       0.00023425 </v>
   <v>       0.00338021      -0.00036406       0.00045815 </v>
   <v>       0.00178975       0.00098962      -0.00191753 </v>
   <v>      -0.00317931       0.00143095      -0.00312767 </v>
   <v>      -0.00132296       0.00030365       0.00141085 </v>
   <v>      -0.00223553       0.00015537       0.00115681 </v>
   <v>      -0.00067522       0.00121699       0.00071940 </v>
   <v>       0.00134729      -0.00094435      -0.00198929 </v>
   <v>      -0.00042437       0.00034567       0.00140860 </v>
   <v>       0.00055395      -0.00003867      -0.00082165 </v>
  </varray>
 </structure>
</modeling>
