Cluster                                 
           1
     7.757600    0.000000    0.000000
     0.000000   11.706200    0.000000
     0.000000    0.000000   11.329000
   C    F    H    N 
     6     1     7     2
Direct configuration=     1
   0.49993427  0.70908041  0.54304917
   0.49951368  0.58083494  0.54569391
   0.49906789  0.51797054  0.44229945
   0.49911070  0.39784401  0.44151732
   0.50060727  0.39789783  0.64433340
   0.49967350  0.51667442  0.65080651
   0.50016786  0.57348298  0.33505209
   0.61378663  0.74162527  0.49595569
   0.38618367  0.74191752  0.49608149
   0.50016270  0.74399629  0.63290363
   0.53390174  0.38006122  0.26374497
   0.52797117  0.25519564  0.34357926
   0.50186710  0.34672729  0.72508652
   0.49984770  0.55991433  0.73618256
   0.49210918  0.33827554  0.33670153
   0.50078969  0.33870099  0.54287973
Direct configuration=     2
   0.49905277  0.70936853  0.54283724
   0.50036671  0.58062867  0.54636592
   0.49829586  0.51848562  0.44315732
   0.49832431  0.39792218  0.44145360
   0.50025013  0.39809278  0.64349888
   0.49915480  0.51685707  0.65022735
   0.50064793  0.57330217  0.33558775
   0.61773489  0.74111402  0.49311025
   0.38639375  0.74489844  0.49693399
   0.50050977  0.74201963  0.62977305
   0.53427060  0.38000005  0.26371377
   0.52695140  0.25455616  0.34343889
   0.49850746  0.34711697  0.72599104
   0.50386857  0.56097423  0.73311760
   0.49310718  0.33783974  0.33605832
   0.50093045  0.33839033  0.54346540
Direct configuration=     3
   0.49828060  0.70963484  0.54251052
   0.50118852  0.58046075  0.54700436
   0.49752941  0.51896176  0.44398594
   0.49755100  0.39798978  0.44138954
   0.49988429  0.39827844  0.64272905
   0.49865103  0.51701889  0.64963699
   0.50112481  0.57312590  0.33612262
   0.62051166  0.74037879  0.49078614
   0.38658569  0.74775436  0.49772001
   0.50099178  0.74054912  0.62775011
   0.53470899  0.37995159  0.26350553
   0.52597168  0.25388851  0.34325950
   0.49523374  0.34768910  0.72656055
   0.50780693  0.56217757  0.73060574
   0.49409652  0.33741686  0.33544946
   0.50106311  0.33808136  0.54401280
Direct configuration=     4
   0.49768138  0.70985942  0.54198823
   0.50195103  0.58036603  0.54757456
   0.49677351  0.51936273  0.44475655
   0.49680206  0.39803880  0.44132632
   0.49949980  0.39845051  0.64207543
   0.49817274  0.51714429  0.64903928
   0.50159795  0.57295742  0.33665767
   0.62144706  0.73932862  0.48929397
   0.38674344  0.75035682  0.49838832
   0.50175290  0.73995204  0.62767881
   0.53528117  0.37992896  0.26302869
   0.52507104  0.25319533  0.34302357
   0.49213788  0.34855389  0.72658459
   0.51161594  0.56360332  0.72903882
   0.49506880  0.33701908  0.33490092
   0.50117992  0.33777442  0.54448591
Direct configuration=     5
   0.49728462  0.71004449  0.54127623
   0.50262965  0.58037453  0.54804331
   0.49602968  0.51965818  0.44544395
   0.49608769  0.39806134  0.44126472
   0.49908687  0.39861072  0.64157287
   0.49772952  0.51723335  0.64846414
   0.50206755  0.57279937  0.33719407
   0.62031865  0.73798292  0.48874999
   0.38685566  0.75259565  0.49891742
   0.50288586  0.74025094  0.62950647
   0.53599108  0.37989167  0.26230147
   0.52427154  0.25250491  0.34271673
   0.48930155  0.34972444  0.72601100
   0.51523953  0.56516835  0.72846887
   0.49602295  0.33665796  0.33442727
   0.50127401  0.33746875  0.54485410
Direct configuration=     6
   0.49709271  0.71021155  0.54045968
   0.50320416  0.58051006  0.54838348
   0.49529907  0.51982447  0.44602768
   0.49541622  0.39804945  0.44120601
   0.49863832  0.39876747  0.64123453
   0.49733487  0.51730039  0.64796477
   0.50253390  0.57265385  0.33773310
   0.61730804  0.73644975  0.48908930
   0.38690935  0.75437636  0.49931347
   0.50438526  0.74115909  0.63232084
   0.53678749  0.37975359  0.26144126
   0.52358217  0.25186457  0.34233012
   0.48678407  0.35111471  0.72495578
   0.51856515  0.56663140  0.72863670
   0.49696248  0.33634527  0.33403282
   0.50133835  0.33716415  0.54509297
Direct configuration=     7
   0.49707650  0.71038219  0.53965510
   0.50365642  0.58078842  0.54857405
   0.49458354  0.51984625  0.44649214
   0.49479652  0.39799464  0.44115025
   0.49814774  0.39893332  0.64105323
   0.49700555  0.51736677  0.64759959
   0.50299667  0.57252233  0.33827540
   0.61304755  0.73492836  0.49004760
   0.38688511  0.75562164  0.49960240
   0.50616844  0.74231027  0.63498534
   0.53759556  0.37941789  0.26060931
   0.52300464  0.25132615  0.34186358
   0.48461318  0.35254863  0.72369311
   0.52143031  0.56769158  0.72914893
   0.49789364  0.33609163  0.33371610
   0.50136662  0.33686197  0.54518574
Direct configuration=     8
   0.49716355  0.71056387  0.53897395
   0.50396991  0.58121540  0.54860363
   0.49388498  0.51971454  0.44682841
   0.49423608  0.39788849  0.44109779
   0.49761172  0.39912200  0.64100396
   0.49675742  0.51745446  0.64741331
   0.50345773  0.57240618  0.33882022
   0.60868449  0.73371618  0.49113252
   0.38675286  0.75627627  0.49981621
   0.50812734  0.74341656  0.63661703
   0.53835250  0.37881898  0.25994175
   0.52253634  0.25092884  0.34132718
   0.48278151  0.35378983  0.72260770
   0.52366808  0.56809512  0.72965156
   0.49882279  0.33590476  0.33347438
   0.50135254  0.33656575  0.54512407
Direct configuration=     9
   0.49724953  0.71074950  0.53851039
   0.50413126  0.58178501  0.54846935
   0.49320260  0.51942863  0.44703416
   0.49374198  0.39772188  0.44104739
   0.49702980  0.39934433  0.64105214
   0.49660274  0.51758192  0.64742825
   0.50391875  0.57230572  0.33936727
   0.60573467  0.73317287  0.49167883
   0.38646957  0.75631175  0.49997920
   0.51016152  0.74430359  0.63669785
   0.53903424  0.37795171  0.25949901
   0.52217274  0.25068641  0.34074208
   0.48125850  0.35460373  0.72208673
   0.52514892  0.56769489  0.72992856
   0.49975508  0.33578831  0.33330767
   0.50128961  0.33628137  0.54490832
Direct configuration=    10
   0.49725148  0.71092920  0.53832310
   0.50412868  0.58247965  0.54817487
   0.49253622  0.51899627  0.44711360
   0.49332009  0.39748533  0.44099743
   0.49639768  0.39960249  0.64116806
   0.49654953  0.51776155  0.64764302
   0.50438308  0.57222073  0.33991611
   0.60542097  0.73358317  0.49111731
   0.38597642  0.75572837  0.50009481
   0.51219066  0.74489867  0.63503935
   0.53966419  0.37687934  0.25924660
   0.52190813  0.25058252  0.34013975
   0.48002284  0.35484252  0.72236375
   0.52580328  0.56646827  0.72993849
   0.50069418  0.33574142  0.33322012
   0.50117063  0.33601621  0.54454633
Direct configuration=    11
   0.49718142  0.71110577  0.53840482
   0.50395343  0.58327006  0.54773168
   0.49188675  0.51843109  0.44707547
   0.49297552  0.39717081  0.44094599
   0.49570881  0.39988343  0.64133826
   0.49659966  0.51799778  0.64803240
   0.50485297  0.57215183  0.34046481
   0.60777783  0.73497323  0.48935723
   0.38520573  0.75455499  0.50014222
   0.51415990  0.74522771  0.63176965
   0.54030504  0.37572279  0.25907064
   0.52173609  0.25057615  0.33956109
   0.47909518  0.35451131  0.72339864
   0.52563346  0.56452266  0.72982805
   0.50164165  0.33575996  0.33321980
   0.50098766  0.33577934  0.54405274
Direct configuration=    12
   0.49714488  0.71129393  0.53867366
   0.50359963  0.58411640  0.54715825
   0.49125440  0.51775423  0.44693218
   0.49271340  0.39677231  0.44088919
   0.49495588  0.40016145  0.64156514
   0.49674754  0.51828664  0.64854883
   0.50533147  0.57209853  0.34100904
   0.61160510  0.73708597  0.48682916
   0.38410386  0.75284670  0.50008374
   0.51606560  0.74544618  0.62740945
   0.54103115  0.37463038  0.25882991
   0.52164792  0.25061417  0.33905466
   0.47854167  0.35376434  0.72488540
   0.52471914  0.56209452  0.72993154
   0.50259716  0.33583741  0.33331546
   0.50073263  0.33558055  0.54344984
Direct configuration=    13
   0.49726000  0.71150236  0.53898942
   0.50306708  0.58497028  0.54648029
   0.49064263  0.51699457  0.44670106
   0.49253969  0.39628813  0.44082241
   0.49413295  0.40040562  0.64185787
   0.49698107  0.51861333  0.64912761
   0.50582037  0.57206075  0.34154285
   0.61532149  0.73954373  0.48414292
   0.38267000  0.75067638  0.49988549
   0.51800747  0.74589137  0.62297043
   0.54188913  0.37373335  0.25843197
   0.52163097  0.25064903  0.33867113
   0.47844285  0.35283719  0.72638019
   0.52320120  0.55951378  0.73071248
   0.50356011  0.33596600  0.33350937
   0.50039756  0.33542901  0.54276659
Direct configuration=    14
   0.49759804  0.71172247  0.53918617
   0.50236182  0.58577848  0.54573050
   0.49005508  0.51618652  0.44640304
   0.49245915  0.39572208  0.44074077
   0.49323849  0.40058754  0.64222020
   0.49728520  0.51896252  0.64970388
   0.50632001  0.57203673  0.34205797
   0.61766427  0.74200073  0.48179224
   0.38097863  0.74812745  0.49954325
   0.52021140  0.74706696  0.61982733
   0.54286699  0.37310623  0.25790125
   0.52166867  0.25065767  0.33845655
   0.47885706  0.35196307  0.72745926
   0.52121875  0.55710204  0.73258733
   0.50453414  0.33613807  0.33379302
   0.49997568  0.33533202  0.54203798
Direct configuration=    15
   0.49818135  0.71194559  0.53913319
   0.50149696  0.58648928  0.54494625
   0.48949420  0.51536572  0.44606076
   0.49247386  0.39508387  0.44063993
   0.49227479  0.40068870  0.64264489
   0.49764883  0.51932436  0.65023787
   0.50683200  0.57202517  0.34254463
   0.61785611  0.74419622  0.48007632
   0.37917490  0.74529087  0.49909660
   0.52288483  0.74939215  0.61904936
   0.54389277  0.37275801  0.25738713
   0.52174192  0.25065068  0.33844543
   0.47979793  0.35131009  0.72782628
   0.51882559  0.55504227  0.73566610
   0.50552877  0.33634506  0.33414623
   0.49946061  0.33529283  0.54130179
Direct configuration=    16
   0.49901753  0.71219467  0.53880403
   0.50048939  0.58705382  0.54416682
   0.48896262  0.51456783  0.44569739
   0.49258395  0.39439000  0.44051519
   0.49124753  0.40070215  0.64311076
   0.49806636  0.51969887  0.65072866
   0.50735803  0.57202532  0.34299309
   0.61553989  0.74595218  0.47912040
   0.37743804  0.74227679  0.49862438
   0.52592891  0.75279846  0.62056294
   0.54486494  0.37265809  0.25710507
   0.52183388  0.25066670  0.33865648
   0.48123107  0.35094858  0.72736539
   0.51597612  0.55333529  0.73960689
   0.50655753  0.33657634  0.33454135
   0.49884695  0.33531058  0.54059765
Direct configuration=    17
   0.50010827  0.71252478  0.53826822
   0.49936238  0.58742799  0.54343437
   0.48846366  0.51382637  0.44533635
   0.49278658  0.39366511  0.44036405
   0.49016974  0.40063547  0.64357833
   0.49853059  0.52008836  0.65120587
   0.50789904  0.57203704  0.34339116
   0.61074229  0.74717396  0.47888923
   0.37594377  0.73922196  0.49823293
   0.52889720  0.75669737  0.62327342
   0.54569415  0.37277510  0.25724529
   0.52193412  0.25075237  0.33908967
   0.48307735  0.35083125  0.72617034
   0.51260117  0.55188219  0.74372914
   0.50763190  0.33681760  0.33494949
   0.49813037  0.33538037  0.53996711
Direct configuration=    18
   0.50142147  0.71298510  0.53762648
   0.49814363  0.58757701  0.54279094
   0.48800140  0.51316988  0.44500119
   0.49307778  0.39294253  0.44018643
   0.48905989  0.40051398  0.64399427
   0.49902491  0.52048808  0.65170362
   0.50845573  0.57205936  0.34372573
   0.60395826  0.74789145  0.47913991
   0.37483278  0.73628670  0.49804121
   0.53127131  0.76035978  0.62591144
   0.54634055  0.37310606  0.25789120
   0.52204375  0.25093677  0.33972373
   0.48522755  0.35078440  0.72455341
   0.50869048  0.55059285  0.74728142
   0.50875839  0.33705090  0.33534685
   0.49730831  0.33549389  0.53945209
Direct configuration=    19
   0.50286361  0.71358654  0.53698093
   0.49686580  0.58747961  0.54227314
   0.48757904  0.51262190  0.44471217
   0.49344888  0.39226141  0.43998588
   0.48793720  0.40037451  0.64429738
   0.49952437  0.52088245  0.65224677
   0.50903016  0.57209250  0.34398486
   0.59629983  0.74834095  0.47930972
   0.37418068  0.73364005  0.49816271
   0.53267946  0.76320932  0.62754360
   0.54683328  0.37368894  0.25897527
   0.52217936  0.25120971  0.34051529
   0.48757025  0.35053508  0.72299252
   0.50431821  0.54943931  0.74965851
   0.50993846  0.33725564  0.33571868
   0.49637954  0.33563998  0.53909099
Direct configuration=    20
   0.50428329  0.71429173  0.53643820
   0.49556254  0.58713151  0.54191224
   0.48719987  0.51219890  0.44448622
   0.49388849  0.39166142  0.43977105
   0.48681773  0.40025416  0.64443183
   0.49999744  0.52124963  0.65284333
   0.50962484  0.57213669  0.34415748
   0.58947320  0.74901339  0.47844811
   0.37397881  0.73144125  0.49869046
   0.53294161  0.76488549  0.62762118
   0.54726280  0.37459667  0.26029267
   0.52237310  0.25151685  0.34140085
   0.49002008  0.34980902  0.72196630
   0.49962047  0.54846195  0.75050716
   0.51117066  0.33741179  0.33605999
   0.49534253  0.33580759  0.53891531
Direct configuration=    21
   0.50553000  0.71503688  0.53609278
   0.49426634  0.58654331  0.54173163
   0.48686626  0.51190929  0.44433327
   0.49438428  0.39118062  0.43955460
   0.48571376  0.40017596  0.64436795
   0.50041052  0.52156356  0.65348006
   0.51024373  0.57219228  0.34423577
   0.58510127  0.75045915  0.47552345
   0.37412875  0.72982930  0.49968529
   0.53204493  0.76521950  0.62590772
   0.54774564  0.37590625  0.26157833
   0.52267057  0.25177182  0.34230132
   0.49251642  0.34848204  0.72171975
   0.49475437  0.54776054  0.74976301
   0.51245450  0.33750197  0.33637273
   0.49419405  0.33598714  0.53894791
Direct configuration=    22
   0.50655685  0.71577954  0.53595523
   0.49300619  0.58573432  0.54174950
   0.48658068  0.51175467  0.44425694
   0.49492469  0.39085176  0.43935575
   0.48463780  0.40014034  0.64411474
   0.50073049  0.52179485  0.65411870
   0.51089120  0.57225974  0.34421432
   0.58352414  0.75277559  0.47026476
   0.37445479  0.72892047  0.50116411
   0.53012894  0.76423157  0.62248017
   0.54836764  0.37764413  0.26262582
   0.52312628  0.25188327  0.34312505
   0.49498015  0.34668346  0.72212567
   0.48986380  0.54749374  0.74767858
   0.51379254  0.33751478  0.33665749
   0.49293011  0.33617206  0.53920136
Direct configuration=    23
   0.50742091  0.71650367  0.53591071
   0.49181311  0.58473531  0.54197764
   0.48634768  0.51173118  0.44425541
   0.49549537  0.39070220  0.43919831
   0.48360947  0.40012827  0.64371351
   0.50092935  0.52191113  0.65469434
   0.51156871  0.57233870  0.34408980
   0.58365914  0.75542369  0.46356201
   0.37474826  0.72880315  0.50308823
   0.52752686  0.76221420  0.61788511
   0.54913516  0.37972594  0.26338915
   0.52379616  0.25178985  0.34377080
   0.49726999  0.34475668  0.72277123
   0.48504780  0.54788086  0.74485702
   0.51518997  0.33744721  0.33690605
   0.49155052  0.33635864  0.53967526
Direct configuration=    24
   0.50818100  0.71717264  0.53575335
   0.49071917  0.58359009  0.54242094
   0.48617353  0.51183073  0.44431924
   0.49608044  0.39074869  0.43910844
   0.48265464  0.40011273  0.64322263
   0.50098783  0.52187845  0.65512101
   0.51227488  0.57242775  0.34386293
   0.58412982  0.75768091  0.45678807
   0.37482267  0.72952151  0.50535853
   0.52482035  0.75988358  0.61339954
   0.54997252  0.38194152  0.26399310
   0.52472801  0.25148786  0.34413797
   0.49918993  0.34311370  0.72317776
   0.48031966  0.54917795  0.74217980
   0.51665175  0.33730582  0.33710258
   0.49006194  0.33654580  0.54035356
Direct configuration=    25
   0.50884664  0.71770465  0.53524783
   0.48975111  0.58235162  0.54307177
   0.48606591  0.51204005  0.44443388
   0.49666314  0.39099437  0.43910973
   0.48179824  0.40007079  0.64270381
   0.50089499  0.52167065  0.65532376
   0.51300617  0.57252479  0.34353773
   0.58399842  0.75902888  0.45109640
   0.37454971  0.73106202  0.50783523
   0.52276247  0.75834303  0.61097518
   0.55077052  0.38401242  0.26464175
   0.52595659  0.25103970  0.34414135
   0.50053713  0.34209566  0.72298619
   0.47562292  0.55158641  0.74045467
   0.51818258  0.33710403  0.33723256
   0.48847538  0.33673441  0.54120500
Direct configuration=    26
   0.50940135  0.71803053  0.53423761
   0.48892537  0.58107441  0.54391137
   0.48603309  0.51234242  0.44458150
   0.49722914  0.39142851  0.43921961
   0.48105645  0.39998923  0.64221096
   0.50063871  0.52128377  0.65528381
   0.51376024  0.57262779  0.34312013
   0.58279827  0.75919420  0.44723496
   0.37389000  0.73335679  0.51037804
   0.52193990  0.75840149  0.61204761
   0.55144746  0.38568231  0.26549246
   0.52750338  0.25055083  0.34372271
   0.50114622  0.34189896  0.72204065
   0.47096725  0.55509829  0.73991706
   0.51978644  0.33685763  0.33729247
   0.48680142  0.33692617  0.54218691
Direct configuration=    27
   0.50983312  0.71816685  0.53276870
   0.48825304  0.57981427  0.54490583
   0.48608276  0.51271799  0.44474210
   0.49776491  0.39202709  0.43944789
   0.48043502  0.39986827  0.64178920
   0.50019463  0.52074475  0.65505055
   0.51453495  0.57273508  0.34261889
   0.58039937  0.75807568  0.44559174
   0.37291186  0.73629187  0.51287456
   0.52250329  0.75976661  0.61599714
   0.55198535  0.38678218  0.26657020
   0.52937499  0.25013403  0.34285801
   0.50091208  0.34255132  0.72041424
   0.46657903  0.55939336  0.74009243
   0.52146098  0.33658219  0.33729434
   0.48505289  0.33712119  0.54324590
Direct configuration=    28
   0.51012044  0.71818112  0.53103583
   0.48774106  0.57863003  0.54600499
   0.48622410  0.51314449  0.44489521
   0.49825660  0.39275402  0.43979282
   0.47993318  0.39972283  0.64147316
   0.49953113  0.52010724  0.65470957
   0.51532393  0.57284363  0.34204676
   0.57695609  0.75571915  0.44621680
   0.37183564  0.73969854  0.51525368
   0.52431900  0.76146444  0.62079317
   0.55243754  0.38726989  0.26773425
   0.53155574  0.24986996  0.34156683
   0.49980965  0.34389230  0.71842900
   0.46286325  0.56391251  0.74018361
   0.52319034  0.33629402  0.33726644
   0.48325154  0.33731714  0.54431738
Direct configuration=    29
   0.51021215  0.71812012  0.52925950
   0.48739197  0.57758370  0.54714278
   0.48646264  0.51359834  0.44502106
   0.49869182  0.39356245  0.44024165
   0.47954000  0.39958339  0.64128042
   0.49862676  0.51943202  0.65434620
   0.51611773  0.57294987  0.34142166
   0.57297730  0.75237013  0.44869592
   0.37100474  0.74335365  0.51747429
   0.52718999  0.76268040  0.62461306
   0.55291290  0.38723792  0.26870857
   0.53400726  0.24977780  0.33991627
   0.49790754  0.34556585  0.71665096
   0.46022086  0.56805069  0.73952125
   0.52494679  0.33600964  0.33724797
   0.48142790  0.33750835  0.54533001
Direct configuration=    30
   0.51001950  0.71798342  0.52765499
   0.48720095  0.57672960  0.54824337
   0.48680217  0.51406090  0.44510600
   0.49906195  0.39440061  0.44077235
   0.47923678  0.39948861  0.64121294
   0.49747677  0.51877415  0.65402622
   0.51690674  0.57305165  0.34076269
   0.56946820  0.74855353  0.45192030
   0.37077703  0.74700951  0.51950068
   0.53092612  0.76298030  0.62636952
   0.55353250  0.38686812  0.26918167
   0.53667631  0.24980735  0.33801450
   0.49534012  0.34709172  0.71578136
   0.45891458  0.57131209  0.73776538
   0.52669846  0.33574534  0.33728050
   0.47961447  0.33768681  0.54621726
Direct configuration=    31
   0.50941920  0.71773105  0.52644794
   0.48715672  0.57611070  0.54923246
   0.48724318  0.51451944  0.44514249
   0.49936464  0.39521818  0.44135796
   0.47900107  0.39946820  0.64126902
   0.49609705  0.51817600  0.65379020
   0.51768294  0.57314614  0.34008693
   0.56795782  0.74504808  0.45403206
   0.37140325  0.75043806  0.52127965
   0.53535752  0.76220561  0.62557645
   0.55437241  0.38633362  0.26895125
   0.53950412  0.24986746  0.33599516
   0.49223100  0.34805913  0.71638406
   0.45902669  0.57338883  0.73491606
   0.52841963  0.33551936  0.33739533
   0.47783956  0.33784520  0.54692695
Direct configuration=    32
   0.50831864  0.71732231  0.52581077
   0.48724330  0.57575678  0.55004182
   0.48778588  0.51496859  0.44512781
   0.49960252  0.39597063  0.44197108
   0.47881373  0.39952209  0.64146725
   0.49451499  0.51766091  0.65365303
   0.51844061  0.57323074  0.33940856
   0.56982162  0.74247973  0.45331797
   0.37294033  0.75347235  0.52273485
   0.54034176  0.76036140  0.62216297
   0.55542224  0.38570546  0.26803959
   0.54242978  0.24987722  0.33400297
   0.48862571  0.34835505  0.71855630
   0.46046513  0.57419091  0.73127807
   0.53009686  0.33535316  0.33760466
   0.47612431  0.33797988  0.54742759
Direct configuration=    33
   0.50677741  0.71676877  0.52572815
   0.48744044  0.57568078  0.55061671
   0.48842848  0.51540734  0.44506337
   0.49978207  0.39661974  0.44258375
   0.47865911  0.39961599  0.64184913
   0.49277272  0.51723449  0.65359863
   0.51917454  0.57330306  0.33874034
   0.57486439  0.74072977  0.44991251
   0.37519570  0.75602401  0.52377588
   0.54577318  0.75758552  0.61643622
   0.55658647  0.38493982  0.26669856
   0.54537993  0.24981576  0.33218984
   0.48452449  0.34820941  0.72183774
   0.46297434  0.57387688  0.72745857
   0.53172426  0.33526821  0.33789951
   0.47448673  0.33809170  0.54770751
Direct configuration=    34
   0.50500683  0.71611130  0.52600205
   0.48772148  0.57588112  0.55091567
   0.48916390  0.51583538  0.44495269
   0.49991148  0.39713351  0.44316712
   0.47851763  0.39969856  0.64245772
   0.49093122  0.51688127  0.65357986
   0.51987847  0.57335970  0.33809567
   0.58128307  0.73917289  0.44561301
   0.37773525  0.75808788  0.52432371
   0.55164826  0.75420862  0.60920553
   0.55772640  0.38395337  0.26530590
   0.54825582  0.24974010  0.33071631
   0.47998800  0.34801339  0.72545293
   0.46615609  0.57289120  0.72436450
   0.53329410  0.33527880  0.33825652
   0.47294926  0.33818588  0.54777424
Direct configuration=    35
   0.50322101  0.71535629  0.52638552
   0.48805599  0.57634049  0.55091691
   0.48998028  0.51625114  0.44480117
   0.50000057  0.39749073  0.44369515
   0.47836484  0.39972126  0.64330843
   0.48906158  0.51657098  0.65352903
   0.52054251  0.57339773  0.33748763
   0.58712823  0.73732323  0.44212870
   0.37999804  0.75974344  0.52434867
   0.55825974  0.75082892  0.60188909
   0.55871468  0.38271473  0.26421321
   0.55094375  0.24975477  0.32973560
   0.47517892  0.34810849  0.72865044
   0.46957655  0.57187789  0.72300777
   0.53479501  0.33538691  0.33864892
   0.47153584  0.33827163  0.54765392
Direct configuration=    36
   0.50153523  0.71447310  0.52666459
   0.48841303  0.57702511  0.55062908
   0.49086376  0.51665380  0.44461476
   0.50005868  0.39768419  0.44414874
   0.47817419  0.39965147  0.64437962
   0.48721835  0.51628574  0.65339450
   0.52115999  0.57341444  0.33692593
   0.59111507  0.73498972  0.44034479
   0.38151333  0.76112177  0.52389917
   0.56629915  0.74819847  0.59617578
   0.55947807  0.38129131  0.26362203
   0.55334459  0.24995021  0.32936726
   0.47031347  0.34867926  0.73092130
   0.47296905  0.57132113  0.72401139
   0.53621745  0.33558250  0.33905656
   0.47026448  0.33835970  0.54738546
Direct configuration=    37
   0.50000531  0.71344738  0.52673472
   0.48876228  0.57789195  0.55008226
   0.49180199  0.51704213  0.44439885
   0.50009523  0.39771958  0.44451715
   0.47792117  0.39947562  0.64562091
   0.48542976  0.51604892  0.65318187
   0.52172708  0.57340771  0.33641621
   0.59260827  0.73216538  0.44047737
   0.38209971  0.76232897  0.52309812
   0.57621284  0.74674601  0.59296169
   0.56000747  0.37984420  0.26353775
   0.55539350  0.25035020  0.32968231
   0.46560188  0.34974133  0.73205523
   0.47630587  0.57116367  0.72714626
   0.53755395  0.33584837  0.33947230
   0.46914400  0.33845920  0.54701296
Direct configuration=    38
   0.49872373  0.71232474  0.52663522
   0.48907765  0.57888906  0.54932397
   0.49278279  0.51741286  0.44415900
   0.50011891  0.39761347  0.44479628
   0.47758542  0.39920130  0.64695810
   0.48371648  0.51591548  0.65294805
   0.52224161  0.57337595  0.33596197
   0.59143147  0.72893918  0.44233735
   0.38190903  0.76338424  0.52211355
   0.58714657  0.74622526  0.59170446
   0.56034487  0.37859298  0.26379464
   0.55706261  0.25089574  0.33069676
   0.46121570  0.35115950  0.73212670
   0.47962695  0.57090836  0.73144907
   0.53879599  0.33616509  0.33990085
   0.46817827  0.33857567  0.54658043
Direct configuration=    39
   0.49780625  0.71118413  0.52647088
   0.48933457  0.57995888  0.54841696
   0.49379111  0.51775823  0.44390213
   0.50013752  0.39739120  0.44498771
   0.47715744  0.39885843  0.64829814
   0.48210260  0.51593284  0.65275767
   0.52270373  0.57331912  0.33556407
   0.58779612  0.72547125  0.44545582
   0.38132859  0.76421092  0.52112354
   0.59732078  0.74607542  0.59128434
   0.56055649  0.37775300  0.26413756
   0.55835839  0.25146399  0.33236764
   0.45725778  0.35266433  0.73147542
   0.48287671  0.57005171  0.73578447
   0.53993331  0.33651441  0.34035236
   0.46736859  0.33871029  0.54612880
Direct configuration=    40
   0.49730224  0.71009626  0.52633968
   0.48951582  0.58104000  0.54742806
   0.49480915  0.51806793  0.44363524
   0.50015687  0.39708573  0.44509812
   0.47663955  0.39849574  0.64953819
   0.48061530  0.51611560  0.65265533
   0.52311540  0.57323956  0.33522133
   0.58235335  0.72198451  0.44907522
   0.38080884  0.76468122  0.52028889
   0.60521497  0.74586619  0.59089744
   0.56069778  0.37745520  0.26435102
   0.55931377  0.25192184  0.33459970
   0.45373169  0.35389475  0.73065180
   0.48590925  0.56834639  0.73927855
   0.54095791  0.33688177  0.34083457
   0.46671147  0.33886026  0.54569414
Direct configuration=    41
   0.49716287  0.70910764  0.52633177
   0.48960953  0.58207128  0.54642255
   0.49582326  0.51833314  0.44336551
   0.50018177  0.39673388  0.44513676
   0.47604199  0.39816786  0.65058339
   0.47927564  0.51644810  0.65265649
   0.52347879  0.57314023  0.33492977
   0.57625561  0.71875232  0.45208971
   0.38070254  0.76468291  0.51973499
   0.61003192  0.74538734  0.59017500
   0.56078908  0.37769093  0.26437370
   0.55997446  0.25219037  0.33726233
   0.45055030  0.35449554  0.73025443
   0.48856366  0.56581353  0.74145081
   0.54187013  0.33725734  0.34134578
   0.46619888  0.33902017  0.54530582
Direct configuration=    42
   0.49727351  0.70824396  0.52653605
   0.48960887  0.58299806  0.54545577
   0.49682269  0.51854840  0.44310019
   0.50021438  0.39637136  0.44511680
   0.47537697  0.39791866  0.65137109
   0.47809560  0.51689354  0.65275263
   0.52379884  0.57302346  0.33468342
   0.57096521  0.71604614  0.45315810
   0.38116465  0.76417199  0.51954223
   0.61158632  0.74458220  0.58901819
   0.56081502  0.37832073  0.26431612
   0.56038359  0.25228199  0.34020758
   0.44761473  0.35426371  0.73066072
   0.49071842  0.56266456  0.74218650
   0.54267825  0.33763372  0.34187364
   0.46581811  0.33918330  0.54498514
Direct configuration=    43
   0.49753961  0.70751935  0.52700035
   0.48951042  0.58377357  0.54457108
   0.49779978  0.51871006  0.44284435
   0.50025715  0.39603099  0.44505266
   0.47464613  0.39776687  0.65188802
   0.47707664  0.51740405  0.65291536
   0.52408086  0.57289221  0.33447562
   0.56747950  0.71403440  0.45136027
   0.38214006  0.76318912  0.51974832
   0.61010310  0.74348909  0.58747372
   0.56074772  0.37913933  0.26437641
   0.56057471  0.25229375  0.34328085
   0.44492376  0.35325739  0.73181729
   0.49231819  0.55923380  0.74168504
   0.54339581  0.33800328  0.34240092
   0.46555459  0.33934331  0.54474531
Direct configuration=    44
   0.49795331  0.70694556  0.52766484
   0.48931735  0.58435823  0.54380058
   0.49874635  0.51881370  0.44260423
   0.50031042  0.39574181  0.44495950
   0.47384113  0.39770830  0.65215974
   0.47620967  0.51792748  0.65309722
   0.52433131  0.57274786  0.33429823
   0.56555531  0.71272908  0.44704307
   0.38338573  0.76185609  0.52035402
   0.60614793  0.74223197  0.58571479
   0.56057249  0.37995075  0.26472462
   0.56057599  0.25235790  0.34632642
   0.44260288  0.35176134  0.73329577
   0.49338513  0.55594063  0.74042483
   0.54403657  0.33835634  0.34291360
   0.46539425  0.33949492  0.54459380
Direct configuration=    45
   0.49854599  0.70652034  0.52837674
   0.48903552  0.58472524  0.54316516
   0.49965340  0.51885719  0.44238411
   0.50037404  0.39552817  0.44485286
   0.47295190  0.39772615  0.65222918
   0.47548026  0.51841107  0.65323548
   0.52455484  0.57259090  0.33414437
   0.56414862  0.71205906  0.44161173
   0.38453560  0.76034805  0.52132510
   0.60069713  0.74105082  0.58409068
   0.56030269  0.38061887  0.26542064
   0.56041865  0.25258079  0.34919189
   0.44083023  0.35014454  0.73454802
   0.49402073  0.55324303  0.73910384
   0.54461127  0.33868081  0.34340498
   0.46532484  0.33963361  0.54453284
Direct configuration=    46
   0.49929753  0.70621755  0.52896656
   0.48867586  0.58486082  0.54267602
   0.50051102  0.51883979  0.44218908
   0.50044642  0.39540945  0.44474889
   0.47197311  0.39780266  0.65213552
   0.47486900  0.51881020  0.65326783
   0.52475477  0.57242231  0.33400785
   0.56237703  0.71195463  0.43653107
   0.38520108  0.75884420  0.52260136
   0.59518443  0.74032896  0.58317028
   0.55997948  0.38108885  0.26638881
   0.56014317  0.25299796  0.35174187
   0.43974437  0.34872776  0.73513631
   0.49437334  0.55153400  0.73844556
   0.54512699  0.33896519  0.34387747
   0.46533575  0.33975649  0.54455950
Direct configuration=    47
   0.50012359  0.70599632  0.52930076
   0.48825319  0.58476772  0.54233453
   0.50131243  0.51876220  0.44202274
   0.50052589  0.39539750  0.44466188
   0.47090411  0.39792536  0.65190778
   0.47435741  0.51909978  0.65316099
   0.52493529  0.57224180  0.33388339
   0.55983691  0.71236441  0.43279083
   0.38510064  0.75746524  0.52412021
   0.59118092  0.74051317  0.58362082
   0.55966041  0.38137966  0.26744622
   0.55979778  0.25355976  0.35387619
   0.43939618  0.34771679  0.73483301