  16  16   1   0
  0.6430058E+02  0.7757600E-09  0.1170620E-08  0.1132900E-08  0.1000000E-14
   500.000000000000     
  CAR 
 Cluster                                 
      4.48279995    -31.85820337  301     -4.84046480      1.00000000
    -31.858  0.0000E+00  0.0000E+00
    -31.737  0.0000E+00  0.0000E+00
    -31.616  0.0000E+00  0.0000E+00
    -31.495  0.0000E+00  0.0000E+00
    -31.374  0.0000E+00  0.0000E+00
    -31.253  0.0000E+00  0.0000E+00
    -31.131 -0.3373E-33 -0.3947E-34
    -31.010 -0.9389E-25 -0.1101E-25
    -30.889 -0.1778E-17 -0.2091E-18
    -30.768 -0.2155E-11 -0.2541E-12
    -30.647 -0.1678E-06 -0.1983E-07
    -30.526 -0.7558E-03 -0.8956E-04
    -30.405 -0.1602E+00 -0.1910E-01
    -30.283  0.5335E+00  0.4419E-01
    -30.162  0.1361E+02  0.1661E+01
    -30.041  0.3227E+01  0.2044E+01
    -29.920 -0.3684E+00  0.2001E+01
    -29.799 -0.4483E-02  0.2000E+01
    -29.678 -0.2218E-05  0.2000E+01
    -29.557 -0.6135E-10  0.2000E+01
    -29.435  0.0000E+00  0.2000E+01
    -29.314  0.0000E+00  0.2000E+01
    -29.193  0.0000E+00  0.2000E+01
    -29.072  0.0000E+00  0.2000E+01
    -28.951  0.0000E+00  0.2000E+01
    -28.830  0.0000E+00  0.2000E+01
    -28.709  0.0000E+00  0.2000E+01
    -28.588  0.0000E+00  0.2000E+01
    -28.466  0.0000E+00  0.2000E+01
    -28.345  0.0000E+00  0.2000E+01
    -28.224  0.0000E+00  0.2000E+01
    -28.103  0.0000E+00  0.2000E+01
    -27.982  0.0000E+00  0.2000E+01
    -27.861  0.0000E+00  0.2000E+01
    -27.740  0.0000E+00  0.2000E+01
    -27.618  0.0000E+00  0.2000E+01
    -27.497  0.0000E+00  0.2000E+01
    -27.376  0.0000E+00  0.2000E+01
    -27.255  0.0000E+00  0.2000E+01
    -27.134  0.0000E+00  0.2000E+01
    -27.013  0.0000E+00  0.2000E+01
    -26.892  0.0000E+00  0.2000E+01
    -26.770  0.0000E+00  0.2000E+01
    -26.649  0.0000E+00  0.2000E+01
    -26.528  0.0000E+00  0.2000E+01
    -26.407  0.0000E+00  0.2000E+01
    -26.286  0.0000E+00  0.2000E+01
    -26.165  0.0000E+00  0.2000E+01
    -26.044  0.0000E+00  0.2000E+01
    -25.923  0.0000E+00  0.2000E+01
    -25.801  0.0000E+00  0.2000E+01
    -25.680  0.0000E+00  0.2000E+01
    -25.559  0.0000E+00  0.2000E+01
    -25.438  0.0000E+00  0.2000E+01
    -25.317 -0.2359E-33  0.2000E+01
    -25.196 -0.3684E-25  0.2000E+01
    -25.075 -0.3705E-18  0.2000E+01
    -24.953 -0.2307E-12  0.2000E+01
    -24.832 -0.9273E-08  0.2000E+01
    -24.711 -0.2251E-04  0.2000E+01
    -24.590 -0.2799E-02  0.2000E+01
    -24.469  0.9563E-02  0.2001E+01
    -24.348  0.1948E+00  0.2024E+01
    -24.227  0.3217E+00  0.2061E+01
    -24.105  0.3699E+00  0.2105E+01
    -23.984  0.7396E+00  0.2192E+01
    -23.863  0.1519E+01  0.2372E+01
    -23.742  0.3248E+01  0.2757E+01
    -23.621  0.2845E+01  0.3094E+01
    -23.500  0.1790E+01  0.3307E+01
    -23.379  0.1519E+01  0.3488E+01
    -23.257  0.1925E+01  0.3716E+01
    -23.136  0.1425E+01  0.3887E+01
    -23.015  0.4928E+00  0.3946E+01
    -22.894  0.1439E+00  0.3964E+01
    -22.773  0.1697E+00  0.3985E+01
    -22.652  0.1263E+00  0.4000E+01
    -22.531 -0.2230E-02  0.4000E+01
    -22.410  0.1676E-01  0.4002E+01
    -22.288  0.2036E+00  0.4025E+01
    -22.167  0.4185E+00  0.4074E+01
    -22.046  0.1042E+01  0.4196E+01
    -21.925  0.1994E+01  0.4433E+01
    -21.804  0.2877E+01  0.4774E+01
    -21.683  0.3007E+01  0.5131E+01
    -21.562  0.2980E+01  0.5485E+01
    -21.440  0.1976E+01  0.5720E+01
    -21.319  0.9208E+00  0.5830E+01
    -21.198  0.7144E+00  0.5916E+01
    -21.077  0.4252E+00  0.5968E+01
    -20.956  0.2171E+00  0.5994E+01
    -20.835  0.5019E-01  0.6001E+01
    -20.714 -0.4901E-02  0.6000E+01
    -20.592 -0.4398E-02  0.5999E+01
    -20.471  0.3206E-01  0.6003E+01
    -20.350  0.2070E+00  0.6028E+01
    -20.229  0.1883E+00  0.6051E+01
    -20.108  0.1219E+01  0.6195E+01
    -19.987  0.2129E+01  0.6446E+01
    -19.866  0.2674E+01  0.6763E+01
    -19.745  0.3120E+01  0.7133E+01
    -19.623  0.3211E+01  0.7516E+01
    -19.502  0.2152E+01  0.7773E+01
    -19.381  0.1101E+01  0.7904E+01
    -19.260  0.4369E+00  0.7956E+01
    -19.139  0.3018E+00  0.7992E+01
    -19.018  0.7655E-01  0.8001E+01
    -18.897 -0.8244E-02  0.8000E+01
    -18.775 -0.1861E-03  0.8000E+01
    -18.654 -0.4943E-06  0.8000E+01
    -18.533 -0.3184E-03  0.8000E+01
    -18.412 -0.1357E-01  0.7998E+01
    -18.291  0.1069E+00  0.8011E+01
    -18.170  0.5592E+00  0.8077E+01
    -18.049  0.1655E+01  0.8273E+01
    -17.927  0.2667E+01  0.8588E+01
    -17.806  0.3018E+01  0.8946E+01
    -17.685  0.2627E+01  0.9258E+01
    -17.564  0.2325E+01  0.9533E+01
    -17.443  0.2126E+01  0.9786E+01
    -17.322  0.2747E+01  0.1011E+02
    -17.201  0.2950E+01  0.1047E+02
    -17.080  0.3630E+01  0.1090E+02
    -16.958  0.3916E+01  0.1136E+02
    -16.837  0.3049E+01  0.1172E+02
    -16.716  0.1507E+01  0.1190E+02
    -16.595  0.3724E+00  0.1195E+02
    -16.474  0.3370E+00  0.1199E+02
    -16.353  0.9654E-01  0.1200E+02
    -16.232 -0.3967E-02  0.1200E+02
    -16.110 -0.7071E-03  0.1200E+02
    -15.989 -0.2651E-05  0.1200E+02
    -15.868 -0.5954E-09  0.1200E+02
    -15.747 -0.1326E-05  0.1200E+02
    -15.626 -0.7937E-03  0.1200E+02
    -15.505 -0.1911E-01  0.1200E+02
    -15.384  0.1936E+00  0.1202E+02
    -15.262  0.8201E+00  0.1212E+02
    -15.141  0.1765E+01  0.1233E+02
    -15.020  0.3100E+01  0.1269E+02
    -14.899  0.4447E+01  0.1322E+02
    -14.778  0.5222E+01  0.1384E+02
    -14.657  0.4999E+01  0.1443E+02
    -14.536  0.4764E+01  0.1500E+02
    -14.415  0.3945E+01  0.1547E+02
    -14.293  0.2762E+01  0.1580E+02
    -14.172  0.1411E+01  0.1597E+02
    -14.051  0.2718E+00  0.1600E+02
    -13.930 -0.6202E-02  0.1600E+02
    -13.809 -0.2663E-02  0.1600E+02
    -13.688 -0.2524E-03  0.1600E+02
    -13.567 -0.1149E-01  0.1600E+02
    -13.445  0.7324E-01  0.1601E+02
    -13.324  0.7742E+00  0.1610E+02
    -13.203  0.1060E+01  0.1623E+02
    -13.082  0.2028E+01  0.1647E+02
    -12.961  0.3231E+01  0.1685E+02
    -12.840  0.4351E+01  0.1737E+02
    -12.719  0.3461E+01  0.1778E+02
    -12.597  0.2492E+01  0.1807E+02
    -12.476  0.1115E+01  0.1821E+02
    -12.355  0.1633E+01  0.1840E+02
    -12.234  0.3716E+01  0.1884E+02
    -12.113  0.6785E+01  0.1965E+02
    -11.992  0.6535E+01  0.2042E+02
    -11.871  0.5545E+01  0.2108E+02
    -11.750  0.3673E+01  0.2152E+02
    -11.628  0.1966E+01  0.2175E+02
    -11.507  0.1285E+01  0.2190E+02
    -11.386  0.9306E+00  0.2202E+02
    -11.265  0.1435E+01  0.2219E+02
    -11.144  0.1649E+01  0.2238E+02
    -11.023  0.3143E+01  0.2276E+02
    -10.902  0.5470E+01  0.2341E+02
    -10.780  0.6789E+01  0.2422E+02
    -10.659  0.5592E+01  0.2488E+02
    -10.538  0.6305E+01  0.2563E+02
    -10.417  0.6198E+01  0.2636E+02
    -10.296  0.4249E+01  0.2687E+02
    -10.175  0.3934E+01  0.2733E+02
    -10.054  0.3109E+01  0.2770E+02
     -9.932  0.2648E+01  0.2802E+02
     -9.811  0.2776E+01  0.2835E+02
     -9.690  0.3284E+01  0.2874E+02
     -9.569  0.4343E+01  0.2925E+02
     -9.448  0.5596E+01  0.2992E+02
     -9.327  0.5961E+01  0.3063E+02
     -9.206  0.7534E+01  0.3152E+02
     -9.085  0.7394E+01  0.3240E+02
     -8.963  0.7547E+01  0.3330E+02
     -8.842  0.7386E+01  0.3418E+02
     -8.721  0.8144E+01  0.3514E+02
     -8.600  0.7323E+01  0.3601E+02
     -8.479  0.5638E+01  0.3668E+02
     -8.358  0.4378E+01  0.3720E+02
     -8.237  0.4669E+01  0.3776E+02
     -8.115  0.4832E+01  0.3833E+02
     -7.994  0.3676E+01  0.3877E+02
     -7.873  0.3566E+01  0.3919E+02
     -7.752  0.2441E+01  0.3948E+02
     -7.631  0.1678E+01  0.3968E+02
     -7.510  0.1298E+01  0.3983E+02
     -7.389  0.1205E+01  0.3998E+02
     -7.267  0.1510E+01  0.4016E+02
     -7.146  0.2067E+01  0.4040E+02
     -7.025  0.2258E+01  0.4067E+02
     -6.904  0.2863E+01  0.4101E+02
     -6.783  0.3296E+01  0.4140E+02
     -6.662  0.2922E+01  0.4175E+02
     -6.541  0.1626E+01  0.4194E+02
     -6.420  0.4446E+00  0.4199E+02
     -6.298  0.1761E+00  0.4202E+02
     -6.177  0.4494E+00  0.4207E+02
     -6.056  0.9584E+00  0.4218E+02
     -5.935  0.1787E+01  0.4240E+02
     -5.814  0.2575E+01  0.4270E+02
     -5.693  0.4046E+01  0.4318E+02
     -5.572  0.4191E+01  0.4368E+02
     -5.450  0.3111E+01  0.4405E+02
     -5.329  0.3657E+01  0.4449E+02
     -5.208  0.4339E+01  0.4500E+02
     -5.087  0.4079E+01  0.4549E+02
     -4.966  0.2532E+01  0.4579E+02
     -4.845  0.1801E+01  0.4600E+02
     -4.724  0.1951E+01  0.4623E+02
     -4.602  0.2168E+01  0.4649E+02
     -4.481  0.2572E+01  0.4679E+02
     -4.360  0.2087E+01  0.4704E+02
     -4.239  0.3312E+01  0.4744E+02
     -4.118  0.2921E+01  0.4778E+02
     -3.997  0.1597E+01  0.4797E+02
     -3.876  0.2582E+00  0.4800E+02
     -3.754 -0.1648E-01  0.4800E+02
     -3.633 -0.2133E-02  0.4800E+02
     -3.512 -0.1404E-04  0.4800E+02
     -3.391 -0.4985E-08  0.4800E+02
     -3.270 -0.9977E-13  0.4800E+02
     -3.149  0.0000E+00  0.4800E+02
     -3.028  0.0000E+00  0.4800E+02
     -2.907  0.0000E+00  0.4800E+02
     -2.785  0.0000E+00  0.4800E+02
     -2.664  0.0000E+00  0.4800E+02
     -2.543  0.0000E+00  0.4800E+02
     -2.422  0.0000E+00  0.4800E+02
     -2.301  0.0000E+00  0.4800E+02
     -2.180 -0.2816E-35  0.4800E+02
     -2.059 -0.1020E-26  0.4800E+02
     -1.937 -0.2350E-19  0.4800E+02
     -1.816 -0.3292E-13  0.4800E+02
     -1.695 -0.2833E-08  0.4800E+02
     -1.574 -0.1375E-04  0.4800E+02
     -1.453 -0.3194E-02  0.4800E+02
     -1.332  0.1297E-02  0.4800E+02
     -1.211  0.2994E+00  0.4804E+02
     -1.089  0.7654E+00  0.4813E+02
     -0.968  0.1570E+01  0.4831E+02
     -0.847  0.2192E+01  0.4858E+02
     -0.726  0.2459E+01  0.4887E+02
     -0.605  0.3640E+01  0.4930E+02
     -0.484  0.3847E+01  0.4976E+02
     -0.363  0.3868E+01  0.5022E+02
     -0.242  0.5091E+01  0.5082E+02
     -0.120  0.6478E+01  0.5160E+02
      0.001  0.7346E+01  0.5247E+02
      0.122  0.6109E+01  0.5319E+02
      0.243  0.4193E+01  0.5369E+02
      0.364  0.2934E+01  0.5403E+02
      0.485  0.2008E+01  0.5427E+02
      0.606  0.3705E+01  0.5472E+02
      0.728  0.5665E+01  0.5540E+02
      0.849  0.7196E+01  0.5625E+02
      0.970  0.9171E+01  0.5734E+02
      1.091  0.9293E+01  0.5844E+02
      1.212  0.8126E+01  0.5940E+02
      1.333  0.5427E+01  0.6005E+02
      1.454  0.4048E+01  0.6053E+02
      1.576  0.4692E+01  0.6109E+02
      1.697  0.5332E+01  0.6172E+02
      1.818  0.6451E+01  0.6249E+02
      1.939  0.6288E+01  0.6324E+02
      2.060  0.7583E+01  0.6414E+02
      2.181  0.9672E+01  0.6529E+02
      2.302  0.9582E+01  0.6643E+02
      2.423  0.9565E+01  0.6756E+02
      2.545  0.8532E+01  0.6857E+02
      2.666  0.7010E+01  0.6940E+02
      2.787  0.7346E+01  0.7027E+02
      2.908  0.1424E+02  0.7196E+02
      3.029  0.4705E+00  0.7202E+02
      3.150 -0.1637E+00  0.7200E+02
      3.271 -0.7642E-03  0.7200E+02
      3.393 -0.1689E-06  0.7200E+02
      3.514 -0.2163E-11  0.7200E+02
      3.635  0.0000E+00  0.7200E+02
      3.756  0.0000E+00  0.7200E+02
      3.877  0.0000E+00  0.7200E+02
      3.998  0.0000E+00  0.7200E+02
      4.119  0.0000E+00  0.7200E+02
      4.241  0.0000E+00  0.7200E+02
      4.362  0.0000E+00  0.7200E+02
      4.483  0.0000E+00  0.7200E+02
      4.47232492    -31.90450043  301     -4.82456284      1.00000000
    -31.905  0.0000E+00  0.0000E+00
    -31.783  0.0000E+00  0.0000E+00
    -31.662  0.0000E+00  0.0000E+00
    -31.541  0.0000E+00  0.0000E+00
    -31.419  0.0000E+00  0.0000E+00
    -31.298  0.0000E+00  0.0000E+00
    -31.177  0.0000E+00  0.0000E+00
    -31.056 -0.9416E-29 -0.1142E-29
    -30.934 -0.5491E-21 -0.6658E-22
    -30.813 -0.1586E-14 -0.1924E-15
    -30.692 -0.2339E-09 -0.2836E-10
    -30.571 -0.1638E-05 -0.1987E-06
    -30.449 -0.4608E-03 -0.5607E-04
    -30.328  0.1428E-02  0.1171E-03
    -30.207  0.4499E-01  0.5573E-02
    -30.086  0.1015E-01  0.6804E-02
    -29.964 -0.1123E-02  0.6668E-02
    -29.843 -0.1064E-04  0.6667E-02
    -29.722 -0.3552E-08  0.6667E-02
    -29.601 -0.5494E-13  0.6667E-02
    -29.479  0.0000E+00  0.6667E-02
    -29.358  0.0000E+00  0.6667E-02
    -29.237  0.0000E+00  0.6667E-02
    -29.116  0.0000E+00  0.6667E-02
    -28.994  0.0000E+00  0.6667E-02
    -28.873  0.0000E+00  0.6667E-02
    -28.752  0.0000E+00  0.6667E-02
    -28.631  0.0000E+00  0.6667E-02
    -28.509  0.0000E+00  0.6667E-02
    -28.388  0.0000E+00  0.6667E-02
    -28.267  0.0000E+00  0.6667E-02
    -28.146  0.0000E+00  0.6667E-02
    -28.024  0.0000E+00  0.6667E-02
    -27.903  0.0000E+00  0.6667E-02
    -27.782  0.0000E+00  0.6667E-02
    -27.661  0.0000E+00  0.6667E-02
    -27.539  0.0000E+00  0.6667E-02
    -27.418  0.0000E+00  0.6667E-02
    -27.297  0.0000E+00  0.6667E-02
    -27.176  0.0000E+00  0.6667E-02
    -27.054  0.0000E+00  0.6667E-02
    -26.933  0.0000E+00  0.6667E-02
    -26.812  0.0000E+00  0.6667E-02
    -26.690  0.0000E+00  0.6667E-02
    -26.569  0.0000E+00  0.6667E-02
    -26.448  0.0000E+00  0.6667E-02
    -26.327  0.0000E+00  0.6667E-02
    -26.205  0.0000E+00  0.6667E-02
    -26.084  0.0000E+00  0.6667E-02
    -25.963  0.0000E+00  0.6667E-02
    -25.842  0.0000E+00  0.6667E-02
    -25.720  0.0000E+00  0.6667E-02
    -25.599  0.0000E+00  0.6667E-02
    -25.478  0.0000E+00  0.6667E-02
    -25.357  0.0000E+00  0.6667E-02
    -25.235  0.0000E+00  0.6667E-02
    -25.114  0.0000E+00  0.6667E-02
    -24.993  0.0000E+00  0.6667E-02
    -24.872  0.0000E+00  0.6667E-02
    -24.750  0.0000E+00  0.6667E-02
    -24.629  0.0000E+00  0.6667E-02
    -24.508  0.0000E+00  0.6667E-02
    -24.387  0.0000E+00  0.6667E-02
    -24.265  0.0000E+00  0.6667E-02
    -24.144 -0.5349E-30  0.6667E-02
    -24.023 -0.4817E-22  0.6667E-02
    -23.902 -0.2162E-15  0.6667E-02
    -23.780 -0.4943E-10  0.6667E-02
    -23.659 -0.5438E-06  0.6667E-02
    -23.538 -0.2512E-03  0.6636E-02
    -23.417 -0.7942E-03  0.6540E-02
    -23.295  0.4033E-01  0.1143E-01
    -23.174  0.1728E-01  0.1352E-01
    -23.053 -0.1552E-02  0.1334E-01
    -22.932 -0.2632E-04  0.1333E-01
    -22.810 -0.1394E-07  0.1333E-01
    -22.689 -0.3361E-12  0.1333E-01
    -22.568  0.0000E+00  0.1333E-01
    -22.447 -0.6010E-30  0.1333E-01
    -22.325 -0.5318E-22  0.1333E-01
    -22.204 -0.2351E-15  0.1333E-01
    -22.083 -0.5268E-10  0.1333E-01
    -21.962 -0.5692E-06  0.1333E-01
    -21.840 -0.2578E-03  0.1330E-01
    -21.719 -0.7328E-03  0.1321E-01
    -21.598  0.4057E-01  0.1813E-01
    -21.476  0.1696E-01  0.2019E-01
    -21.355 -0.1536E-02  0.2000E-01
    -21.234 -0.2541E-04  0.2000E-01
    -21.113 -0.1321E-07  0.2000E-01
    -20.991 -0.3129E-12  0.2000E-01
    -20.870  0.0000E+00  0.2000E-01
    -20.749  0.0000E+00  0.2000E-01
    -20.628  0.0000E+00  0.2000E-01
    -20.506 -0.5765E-37  0.2000E-01
    -20.385 -0.5030E-28  0.2000E-01
    -20.264 -0.2265E-20  0.2000E-01
    -20.143 -0.5045E-14  0.2000E-01
    -20.021 -0.5716E-09  0.2000E-01
    -19.900 -0.3057E-05  0.2000E-01
    -19.779 -0.6347E-03  0.1992E-01
    -19.658  0.3528E-02  0.2035E-01
    -19.536  0.4629E-01  0.2596E-01
    -19.415  0.6678E-02  0.2677E-01
    -19.294 -0.8765E-03  0.2667E-01
    -19.173 -0.6009E-05  0.2667E-01
    -19.051 -0.1527E-08  0.2667E-01
    -18.930 -0.1814E-13  0.2667E-01
    -18.809 -0.3584E-32  0.2667E-01
    -18.688 -0.6738E-24  0.2667E-01
    -18.566 -0.6508E-17  0.2667E-01
    -18.445 -0.3059E-11  0.2667E-01
    -18.324 -0.7197E-07  0.2667E-01
    -18.203 -0.7499E-04  0.2666E-01
    -18.081 -0.1869E-02  0.2643E-01
    -17.960  0.2768E-01  0.2979E-01
    -17.839  0.3117E-01  0.3357E-01
    -17.718 -0.1823E-02  0.3335E-01
    -17.596 -0.1036E-03  0.3333E-01
    -17.475 -0.1215E-06  0.3333E-01
    -17.354 -0.1044E-10  0.3333E-01
    -17.233 -0.9087E-07  0.3333E-01
    -17.111 -0.8665E-04  0.3332E-01
    -16.990 -0.1862E-02  0.3310E-01
    -16.869  0.2924E-01  0.3664E-01
    -16.747  0.2964E-01  0.4024E-01
    -16.626 -0.1857E-02  0.4001E-01
    -16.505 -0.8995E-04  0.4000E-01
    -16.384 -0.9655E-07  0.4000E-01
    -16.262 -0.4561E-11  0.4000E-01
    -16.141 -0.1221E-16  0.4000E-01
    -16.020  0.0000E+00  0.4000E-01
    -15.899  0.0000E+00  0.4000E-01
    -15.777 -0.9591E-34  0.4000E-01
    -15.656 -0.3021E-25  0.4000E-01
    -15.535 -0.4896E-18  0.4000E-01
    -15.414 -0.3886E-12  0.4000E-01
    -15.292 -0.1554E-07  0.4000E-01
    -15.171 -0.2825E-04  0.4000E-01
    -15.050 -0.1585E-02  0.3980E-01
    -14.929  0.1790E-01  0.4197E-01
    -14.807  0.3851E-01  0.4664E-01
    -14.686  0.1234E-01  0.4814E-01
    -14.565  0.4296E-01  0.5335E-01
    -14.444  0.2159E-03  0.5338E-01
    -14.322 -0.3521E-03  0.5333E-01
    -14.201 -0.9941E-06  0.5333E-01
    -14.080 -0.1152E-09  0.5333E-01
    -13.959 -0.6348E-15  0.5333E-01
    -13.837 -0.1791E-31  0.5333E-01
    -13.716 -0.2666E-23  0.5333E-01
    -13.595 -0.2037E-16  0.5333E-01
    -13.474 -0.7550E-11  0.5333E-01
    -13.352 -0.1396E-06  0.5333E-01
    -13.231 -0.1127E-03  0.5332E-01
    -13.110 -0.1791E-02  0.5310E-01
    -12.989  0.3208E-01  0.5699E-01
    -12.867  0.2673E-01  0.6023E-01
    -12.746 -0.1875E-02  0.6001E-01
    -12.625 -0.1206E-02  0.5986E-01
    -12.504  0.1037E-01  0.6112E-01
    -12.382  0.4488E-01  0.6656E-01
    -12.261  0.1327E-02  0.6672E-01
    -12.140 -0.5425E-03  0.6666E-01
    -12.019 -0.1858E-02  0.6643E-01
    -11.897  0.2971E-01  0.7003E-01
    -11.776  0.2917E-01  0.7357E-01
    -11.655 -0.1863E-02  0.7334E-01
    -11.533 -0.8609E-04  0.7333E-01
    -11.412 -0.2725E-05  0.7333E-01
    -11.291 -0.5892E-03  0.7326E-01
    -11.170  0.2963E-02  0.7362E-01
    -11.048  0.4602E-01  0.7920E-01
    -10.927  0.5599E-02  0.7988E-01
    -10.806  0.2525E-01  0.8294E-01
    -10.685  0.3065E-01  0.8666E-01
    -10.563  0.2780E-01  0.9003E-01
    -10.442  0.2919E-01  0.9357E-01
    -10.321 -0.1862E-02  0.9334E-01
    -10.200 -0.8720E-04  0.9333E-01
    -10.078 -0.2463E-06  0.9333E-01
     -9.957 -0.1198E-03  0.9332E-01
     -9.836 -0.1767E-02  0.9310E-01
     -9.715  0.3189E-01  0.9697E-01
     -9.593  0.3246E-01  0.1009E+00
     -9.472  0.4449E-01  0.1063E+00
     -9.351  0.3663E-02  0.1067E+00
     -9.230 -0.7878E-03  0.1067E+00
     -9.108 -0.1678E-02  0.1064E+00
     -8.987  0.3419E-01  0.1106E+00
     -8.866  0.2448E-01  0.1136E+00
     -8.745 -0.1834E-02  0.1133E+00
     -8.623 -0.8473E-03  0.1132E+00
     -8.502  0.5546E-02  0.1139E+00
     -8.381  0.4587E-01  0.1195E+00
     -8.260  0.5195E-02  0.1201E+00
     -8.138  0.6780E-01  0.1283E+00
     -8.017  0.4401E-01  0.1337E+00
     -7.896 -0.2518E-02  0.1334E+00
     -7.775 -0.1681E-03  0.1333E+00
     -7.653 -0.2536E-06  0.1333E+00
     -7.532 -0.2268E-05  0.1333E+00
     -7.411 -0.5458E-03  0.1333E+00
     -7.290  0.2435E-02  0.1336E+00
     -7.168  0.4582E-01  0.1391E+00
     -7.047  0.8279E-02  0.1401E+00
     -6.926 -0.9925E-03  0.1400E+00
     -6.804 -0.7946E-05  0.1400E+00
     -6.683 -0.2303E-08  0.1400E+00
     -6.562 -0.4170E-13  0.1400E+00
     -6.441 -0.1013E-08  0.1400E+00
     -6.319 -0.4538E-05  0.1400E+00
     -6.198 -0.7691E-03  0.1399E+00
     -6.077  0.5249E-02  0.1405E+00
     -5.956  0.4649E-01  0.1462E+00
     -5.834  0.4746E-02  0.1468E+00
     -5.713 -0.1590E-02  0.1466E+00
     -5.592  0.6445E-02  0.1473E+00
     -5.471  0.4634E-01  0.1530E+00
     -5.349  0.3705E-02  0.1534E+00
     -5.228 -0.6505E-03  0.1533E+00
     -5.107 -0.4679E-03  0.1533E+00
     -4.986  0.1473E-02  0.1535E+00
     -4.864  0.4504E-01  0.1589E+00
     -4.743  0.1006E-01  0.1601E+00
     -4.622 -0.1116E-02  0.1600E+00
     -4.501 -0.1050E-04  0.1600E+00
     -4.379 -0.3478E-08  0.1600E+00
     -4.258 -0.5346E-13  0.1600E+00
     -4.137  0.0000E+00  0.1600E+00
     -4.016  0.0000E+00  0.1600E+00
     -3.894  0.0000E+00  0.1600E+00
     -3.773  0.0000E+00  0.1600E+00
     -3.652  0.0000E+00  0.1600E+00
     -3.531  0.0000E+00  0.1600E+00
     -3.409  0.0000E+00  0.1600E+00
     -3.288  0.0000E+00  0.1600E+00
     -3.167  0.0000E+00  0.1600E+00
     -3.046  0.0000E+00  0.1600E+00
     -2.924  0.0000E+00  0.1600E+00
     -2.803  0.0000E+00  0.1600E+00
     -2.682  0.0000E+00  0.1600E+00
     -2.561  0.0000E+00  0.1600E+00
     -2.439  0.0000E+00  0.1600E+00
     -2.318  0.0000E+00  0.1600E+00
     -2.197  0.0000E+00  0.1600E+00
     -2.076  0.0000E+00  0.1600E+00
     -1.954 -0.1349E-36  0.1600E+00
     -1.833 -0.1050E-27  0.1600E+00
     -1.712 -0.4215E-20  0.1600E+00
     -1.590 -0.8363E-14  0.1600E+00
     -1.469 -0.8432E-09  0.1600E+00
     -1.348 -0.3999E-05  0.1600E+00
     -1.227 -0.7240E-03  0.1599E+00
     -1.105  0.4663E-02  0.1605E+00
     -0.984  0.4648E-01  0.1661E+00
     -0.863  0.5343E-02  0.1668E+00
     -0.742 -0.8401E-03  0.1667E+00
     -0.620 -0.1861E-02  0.1664E+00
     -0.499  0.2584E-01  0.1696E+00
     -0.378  0.3107E-01  0.1733E+00
     -0.257  0.3139E-01  0.1771E+00
     -0.135  0.2549E-01  0.1802E+00
     -0.014 -0.1851E-02  0.1800E+00
      0.107 -0.6168E-04  0.1800E+00
      0.228 -0.1537E-06  0.1800E+00
      0.350 -0.9328E-04  0.1800E+00
      0.471 -0.2170E-02  0.1797E+00
      0.592  0.2950E-01  0.1833E+00
      0.713  0.7078E-01  0.1919E+00
      0.835  0.5394E-01  0.1984E+00
      0.956  0.1451E-01  0.2002E+00
      1.077 -0.1593E-02  0.2000E+00
      1.198 -0.1879E-02  0.1998E+00
      1.320  0.2969E-01  0.2034E+00
      1.441  0.2918E-01  0.2069E+00
      1.562 -0.2408E-02  0.2066E+00
      1.683  0.2338E-02  0.2069E+00
      1.805  0.4581E-01  0.2124E+00
      1.926  0.8203E-02  0.2134E+00
      2.047 -0.2912E-02  0.2131E+00
      2.168  0.2797E-01  0.2165E+00
      2.290  0.5378E-01  0.2230E+00
      2.411  0.4411E-01  0.2284E+00
      2.532  0.4134E-01  0.2334E+00
      2.653 -0.1029E-02  0.2332E+00
      2.775  0.9801E-02  0.2344E+00
      2.896  0.4499E-01  0.2399E+00
      3.017  0.1428E-02  0.2401E+00
      3.139 -0.4608E-03  0.2400E+00
      3.260 -0.1638E-05  0.2400E+00
      3.381 -0.2339E-09  0.2400E+00
      3.502 -0.1587E-14  0.2400E+00
      3.624  0.0000E+00  0.2400E+00
      3.745  0.0000E+00  0.2400E+00
      3.866  0.0000E+00  0.2400E+00
      3.987  0.0000E+00  0.2400E+00
      4.109  0.0000E+00  0.2400E+00
      4.230  0.0000E+00  0.2400E+00
      4.351  0.0000E+00  0.2400E+00
      4.472  0.0000E+00  0.2400E+00
      4.47232492    -31.90450043  301     -4.82456284      1.00000000
    -31.905  0.0000E+00  0.0000E+00  0.0000E+00  0.0000E+00  0.0000E+00  0.0000E+00  0.0000E+00  0.0000E+00  0.0000E+00
    -31.783  0.0000E+00  0.0000E+00  0.0000E+00  0.0000E+00  0.0000E+00  0.0000E+00  0.0000E+00  0.0000E+00  0.0000E+00
    -31.662  0.0000E+00  0.0000E+00  0.0000E+00  0.0000E+00  0.0000E+00  0.0000E+00  0.0000E+00  0.0000E+00  0.0000E+00
    -31.541  0.0000E+00  0.0000E+00  0.0000E+00  0.0000E+00  0.0000E+00  0.0000E+00  0.0000E+00  0.0000E+00  0.0000E+00
    -31.419  0.0000E+00  0.0000E+00  0.0000E+00  0.0000E+00  0.0000E+00  0.0000E+00  0.0000E+00  0.0000E+00  0.0000E+00
    -31.298  0.0000E+00  0.0000E+00  0.0000E+00  0.0000E+00  0.0000E+00  0.0000E+00  0.0000E+00  0.0000E+00  0.0000E+00
    -31.177  0.0000E+00  0.0000E+00  0.0000E+00  0.0000E+00  0.0000E+00  0.0000E+00  0.0000E+00  0.0000E+00  0.0000E+00
    -31.056 -0.4341E-30 -0.1763E-30 -0.2544E-31 -0.1979E-31  0.0000E+00  0.0000E+00  0.0000E+00  0.0000E+00  0.0000E+00
    -30.934 -0.2531E-22 -0.1028E-22 -0.1484E-23 -0.1154E-23  0.0000E+00  0.0000E+00  0.0000E+00  0.0000E+00  0.0000E+00
    -30.813 -0.7314E-16 -0.2970E-16 -0.4287E-17 -0.3335E-17  0.0000E+00  0.0000E+00  0.0000E+00  0.0000E+00  0.0000E+00
    -30.692 -0.1078E-10 -0.4379E-11 -0.6320E-12 -0.4917E-12  0.0000E+00  0.0000E+00  0.0000E+00  0.0000E+00  0.0000E+00
    -30.571 -0.7553E-07 -0.3067E-07 -0.4427E-08 -0.3444E-08  0.0000E+00  0.0000E+00  0.0000E+00  0.0000E+00  0.0000E+00
    -30.449 -0.2124E-04 -0.8627E-05 -0.1245E-05 -0.9687E-06  0.0000E+00  0.0000E+00  0.0000E+00  0.0000E+00  0.0000E+00
    -30.328  0.6586E-04  0.2675E-04  0.3860E-05  0.3003E-05  0.0000E+00  0.0000E+00  0.0000E+00  0.0000E+00  0.0000E+00
    -30.207  0.2074E-02  0.8424E-03  0.1216E-03  0.9459E-04  0.0000E+00  0.0000E+00  0.0000E+00  0.0000E+00  0.0000E+00
    -30.086  0.4681E-03  0.1901E-03  0.2743E-04  0.2134E-04  0.0000E+00  0.0000E+00  0.0000E+00  0.0000E+00  0.0000E+00
    -29.964 -0.5176E-04 -0.2102E-04 -0.3034E-05 -0.2360E-05  0.0000E+00  0.0000E+00  0.0000E+00  0.0000E+00  0.0000E+00
    -29.843 -0.4907E-06 -0.1993E-06 -0.2876E-07 -0.2237E-07  0.0000E+00  0.0000E+00  0.0000E+00  0.0000E+00  0.0000E+00
    -29.722 -0.1637E-09 -0.6650E-10 -0.9597E-11 -0.7466E-11  0.0000E+00  0.0000E+00  0.0000E+00  0.0000E+00  0.0000E+00
    -29.601 -0.2533E-14 -0.1029E-14 -0.1484E-15 -0.1155E-15  0.0000E+00  0.0000E+00  0.0000E+00  0.0000E+00  0.0000E+00
    -29.479  0.0000E+00  0.0000E+00  0.0000E+00  0.0000E+00  0.0000E+00  0.0000E+00  0.0000E+00  0.0000E+00  0.0000E+00
    -29.358  0.0000E+00  0.0000E+00  0.0000E+00  0.0000E+00  0.0000E+00  0.0000E+00  0.0000E+00  0.0000E+00  0.0000E+00
    -29.237  0.0000E+00  0.0000E+00  0.0000E+00  0.0000E+00  0.0000E+00  0.0000E+00  0.0000E+00  0.0000E+00  0.0000E+00
    -29.116  0.0000E+00  0.0000E+00  0.0000E+00  0.0000E+00  0.0000E+00  0.0000E+00  0.0000E+00  0.0000E+00  0.0000E+00
    -28.994  0.0000E+00  0.0000E+00  0.0000E+00  0.0000E+00  0.0000E+00  0.0000E+00  0.0000E+00  0.0000E+00  0.0000E+00
    -28.873  0.0000E+00  0.0000E+00  0.0000E+00  0.0000E+00  0.0000E+00  0.0000E+00  0.0000E+00  0.0000E+00  0.0000E+00
    -28.752  0.0000E+00  0.0000E+00  0.0000E+00  0.0000E+00  0.0000E+00  0.0000E+00  0.0000E+00  0.0000E+00  0.0000E+00
    -28.631  0.0000E+00  0.0000E+00  0.0000E+00  0.0000E+00  0.0000E+00  0.0000E+00  0.0000E+00  0.0000E+00  0.0000E+00
    -28.509  0.0000E+00  0.0000E+00  0.0000E+00  0.0000E+00  0.0000E+00  0.0000E+00  0.0000E+00  0.0000E+00  0.0000E+00
    -28.388  0.0000E+00  0.0000E+00  0.0000E+00  0.0000E+00  0.0000E+00  0.0000E+00  0.0000E+00  0.0000E+00  0.0000E+00
    -28.267  0.0000E+00  0.0000E+00  0.0000E+00  0.0000E+00  0.0000E+00  0.0000E+00  0.0000E+00  0.0000E+00  0.0000E+00
    -28.146  0.0000E+00  0.0000E+00  0.0000E+00  0.0000E+00  0.0000E+00  0.0000E+00  0.0000E+00  0.0000E+00  0.0000E+00
    -28.024  0.0000E+00  0.0000E+00  0.0000E+00  0.0000E+00  0.0000E+00  0.0000E+00  0.0000E+00  0.0000E+00  0.0000E+00
    -27.903  0.0000E+00  0.0000E+00  0.0000E+00  0.0000E+00  0.0000E+00  0.0000E+00  0.0000E+00  0.0000E+00  0.0000E+00
    -27.782  0.0000E+00  0.0000E+00  0.0000E+00  0.0000E+00  0.0000E+00  0.0000E+00  0.0000E+00  0.0000E+00  0.0000E+00
    -27.661  0.0000E+00  0.0000E+00  0.0000E+00  0.0000E+00  0.0000E+00  0.0000E+00  0.0000E+00  0.0000E+00  0.0000E+00
    -27.539  0.0000E+00  0.0000E+00  0.0000E+00  0.0000E+00  0.0000E+00  0.0000E+00  0.0000E+00  0.0000E+00  0.0000E+00
    -27.418  0.0000E+00  0.0000E+00  0.0000E+00  0.0000E+00  0.0000E+00  0.0000E+00  0.0000E+00  0.0000E+00  0.0000E+00
    -27.297  0.0000E+00  0.0000E+00  0.0000E+00  0.0000E+00  0.0000E+00  0.0000E+00  0.0000E+00  0.0000E+00  0.0000E+00
    -27.176  0.0000E+00  0.0000E+00  0.0000E+00  0.0000E+00  0.0000E+00  0.0000E+00  0.0000E+00  0.0000E+00  0.0000E+00
    -27.054  0.0000E+00  0.0000E+00  0.0000E+00  0.0000E+00  0.0000E+00  0.0000E+00  0.0000E+00  0.0000E+00  0.0000E+00
    -26.933  0.0000E+00  0.0000E+00  0.0000E+00  0.0000E+00  0.0000E+00  0.0000E+00  0.0000E+00  0.0000E+00  0.0000E+00
    -26.812  0.0000E+00  0.0000E+00  0.0000E+00  0.0000E+00  0.0000E+00  0.0000E+00  0.0000E+00  0.0000E+00  0.0000E+00
    -26.690  0.0000E+00  0.0000E+00  0.0000E+00  0.0000E+00  0.0000E+00  0.0000E+00  0.0000E+00  0.0000E+00  0.0000E+00
    -26.569  0.0000E+00  0.0000E+00  0.0000E+00  0.0000E+00  0.0000E+00  0.0000E+00  0.0000E+00  0.0000E+00  0.0000E+00
    -26.448  0.0000E+00  0.0000E+00  0.0000E+00  0.0000E+00  0.0000E+00  0.0000E+00  0.0000E+00  0.0000E+00  0.0000E+00
    -26.327  0.0000E+00  0.0000E+00  0.0000E+00  0.0000E+00  0.0000E+00  0.0000E+00  0.0000E+00  0.0000E+00  0.0000E+00
    -26.205  0.0000E+00  0.0000E+00  0.0000E+00  0.0000E+00  0.0000E+00  0.0000E+00  0.0000E+00  0.0000E+00  0.0000E+00
    -26.084  0.0000E+00  0.0000E+00  0.0000E+00  0.0000E+00  0.0000E+00  0.0000E+00  0.0000E+00  0.0000E+00  0.0000E+00
    -25.963  0.0000E+00  0.0000E+00  0.0000E+00  0.0000E+00  0.0000E+00  0.0000E+00  0.0000E+00  0.0000E+00  0.0000E+00
    -25.842  0.0000E+00  0.0000E+00  0.0000E+00  0.0000E+00  0.0000E+00  0.0000E+00  0.0000E+00  0.0000E+00  0.0000E+00
    -25.720  0.0000E+00  0.0000E+00  0.0000E+00  0.0000E+00  0.0000E+00  0.0000E+00  0.0000E+00  0.0000E+00  0.0000E+00
    -25.599  0.0000E+00  0.0000E+00  0.0000E+00  0.0000E+00  0.0000E+00  0.0000E+00  0.0000E+00  0.0000E+00  0.0000E+00
    -25.478  0.0000E+00  0.0000E+00  0.0000E+00  0.0000E+00  0.0000E+00  0.0000E+00  0.0000E+00  0.0000E+00  0.0000E+00
    -25.357  0.0000E+00  0.0000E+00  0.0000E+00  0.0000E+00  0.0000E+00  0.0000E+00  0.0000E+00  0.0000E+00  0.0000E+00
    -25.235  0.0000E+00  0.0000E+00  0.0000E+00  0.0000E+00  0.0000E+00  0.0000E+00  0.0000E+00  0.0000E+00  0.0000E+00
    -25.114  0.0000E+00  0.0000E+00  0.0000E+00  0.0000E+00  0.0000E+00  0.0000E+00  0.0000E+00  0.0000E+00  0.0000E+00
    -24.993  0.0000E+00  0.0000E+00  0.0000E+00  0.0000E+00  0.0000E+00  0.0000E+00  0.0000E+00  0.0000E+00  0.0000E+00
    -24.872  0.0000E+00  0.0000E+00  0.0000E+00  0.0000E+00  0.0000E+00  0.0000E+00  0.0000E+00  0.0000E+00  0.0000E+00
    -24.750  0.0000E+00  0.0000E+00  0.0000E+00  0.0000E+00  0.0000E+00  0.0000E+00  0.0000E+00  0.0000E+00  0.0000E+00
    -24.629  0.0000E+00  0.0000E+00  0.0000E+00  0.0000E+00  0.0000E+00  0.0000E+00  0.0000E+00  0.0000E+00  0.0000E+00
    -24.508  0.0000E+00  0.0000E+00  0.0000E+00  0.0000E+00  0.0000E+00  0.0000E+00  0.0000E+00  0.0000E+00  0.0000E+00
    -24.387  0.0000E+00  0.0000E+00  0.0000E+00  0.0000E+00  0.0000E+00  0.0000E+00  0.0000E+00  0.0000E+00  0.0000E+00
    -24.265  0.0000E+00  0.0000E+00  0.0000E+00  0.0000E+00  0.0000E+00  0.0000E+00  0.0000E+00  0.0000E+00  0.0000E+00
    -24.144 -0.2230E-31 -0.6501E-32 -0.4638E-33 -0.4287E-33  0.0000E+00  0.0000E+00  0.0000E+00  0.0000E+00  0.0000E+00
    -24.023 -0.2008E-23 -0.5854E-24 -0.4176E-25 -0.3860E-25  0.0000E+00  0.0000E+00  0.0000E+00  0.0000E+00  0.0000E+00