   16   16  300    1
  0.6430058E+02  0.7757600E-09  0.1170620E-08  0.1132900E-08  0.1000000E-14
   500.000000000000     
  CAR 
 Cluster                                 
     48      1     36
 
  0.0000000E+00  0.0000000E+00  0.0000000E+00  0.1000000E+01
      1        -30.251008   1.000000
      2        -23.321651   1.000000
      3        -21.624780   1.000000
      4        -19.591036   1.000000
      5        -17.956285   1.000000
      6        -16.868310   1.000000
      7        -14.903766   1.000000
      8        -14.650225   1.000000
      9        -12.994341   1.000000
     10        -12.460039   1.000000
     11        -11.897832   1.000000
     12        -11.100559   1.000000
     13        -10.799178   1.000000
     14        -10.563716   1.000000
     15         -9.721907   1.000000
     16         -9.537861   1.000000
     17         -8.997679   1.000000
     18         -8.443490   1.000000
     19         -8.188200   1.000000
     20         -8.123823   1.000000
     21         -7.217810   1.000000
     22         -6.017269   1.000000
     23         -5.536504   1.000000
     24         -4.908751   1.000000
     25         -1.043539   0.000000
     26         -0.491756   0.000000
     27         -0.264840   0.000000
     28          0.591051   0.000000
     29          0.680547   0.000000
     30          0.805344   0.000000
     31          1.319121   0.000000
     32          1.755190   0.000000
     33          2.167573   0.000000
     34          2.296907   0.000000
     35          2.446861   0.000000
     36          2.818833   0.000000
