       N       E                     dE             d eps       ncg     rms          rms(c)
RMM:   1     0.790412593805E+03    0.79041E+03   -0.10913E+04    36   0.788E+02
RMM:   2     0.398242131892E+03   -0.39217E+03   -0.43945E+03    36   0.178E+02
RMM:   3     0.236263379065E+03   -0.16198E+03   -0.25567E+03    36   0.140E+02
RMM:   4     0.750576322605E+02   -0.16121E+03   -0.16713E+03    36   0.137E+02
RMM:   5    -0.146132695985E+02   -0.89671E+02   -0.80893E+02    36   0.110E+02
RMM:   6    -0.735775603646E+02   -0.58964E+02   -0.44466E+02    36   0.792E+01
RMM:   7    -0.993691370300E+02   -0.25792E+02   -0.20677E+02    36   0.527E+01
RMM:   8    -0.107177363218E+03   -0.78082E+01   -0.62702E+01    36   0.300E+01
RMM:   9    -0.109219624278E+03   -0.20423E+01   -0.19196E+01    36   0.161E+01
RMM:  10    -0.109874109337E+03   -0.65449E+00   -0.56994E+00    36   0.888E+00
RMM:  11    -0.110071161452E+03   -0.19705E+00   -0.19100E+00    36   0.504E+00
RMM:  12    -0.110143616974E+03   -0.72456E-01   -0.68977E-01    36   0.299E+00
RMM:  13    -0.110170670211E+03   -0.27053E-01   -0.26643E-01    36   0.181E+00
RMM:  14    -0.110181846484E+03   -0.11176E-01   -0.10804E-01    36   0.113E+00
RMM:  15    -0.110188979583E+03   -0.71331E-02   -0.70700E-02    80   0.715E-01
RMM:  16    -0.110189864218E+03   -0.88464E-03   -0.87415E-03    81   0.256E-01
RMM:  17    -0.110190014502E+03   -0.15028E-03   -0.13654E-03    70   0.866E-02
RMM:  18    -0.110190024559E+03   -0.10058E-04   -0.82895E-05    58   0.282E-02
RMM:  19    -0.110190025365E+03   -0.80609E-06   -0.76580E-06    49   0.119E-02
RMM:  20    -0.110190025593E+03   -0.22742E-06   -0.22600E-06    46   0.690E-03    0.170E+01
RMM:  21    -0.102531457656E+03    0.76586E+01   -0.14802E+01   120   0.139E+01    0.914E+00
RMM:  22    -0.100882094465E+03    0.16494E+01   -0.24318E+00   120   0.541E+00    0.418E+00
RMM:  23    -0.100575392392E+03    0.30670E+00   -0.47505E-01   120   0.250E+00    0.106E+00
RMM:  24    -0.100544706072E+03    0.30686E-01   -0.26104E-02   118   0.746E-01    0.318E-01
RMM:  25    -0.100538124825E+03    0.65812E-02   -0.35650E-03    95   0.231E-01    0.190E-01
RMM:  26    -0.100537247269E+03    0.87756E-03   -0.10266E-02   104   0.314E-01    0.952E-02
RMM:  27    -0.100541984688E+03   -0.47374E-02   -0.23647E-03    86   0.158E-01    0.588E-02
RMM:  28    -0.100548727206E+03   -0.67425E-02   -0.89630E-04    79   0.100E-01    0.292E-02
RMM:  29    -0.100553125431E+03   -0.43982E-02   -0.44445E-04    73   0.710E-02    0.205E-02
RMM:  30    -0.100556175641E+03   -0.30502E-02   -0.47854E-04    74   0.652E-02    0.113E-02
RMM:  31    -0.100556857425E+03   -0.68178E-03   -0.10584E-04    63   0.323E-02    0.564E-03
RMM:  32    -0.100557105050E+03   -0.24762E-03   -0.58872E-05    60   0.194E-02    0.272E-03
RMM:  33    -0.100557162462E+03   -0.57413E-04   -0.11380E-05    48   0.933E-03    0.146E-03
RMM:  34    -0.100557220121E+03   -0.57658E-04   -0.10717E-05    43   0.782E-03    0.684E-04
RMM:  35    -0.100557229373E+03   -0.92523E-05   -0.23528E-06    35   0.473E-03
      1 T=   500. E= -.99587240E+02 F= -.10055723E+03 E0= -.10055916E+03  EK= 0.96999E+00 SP= 0.00E+00 SK= 0.00E+00
       N       E                     dE             d eps       ncg     rms          rms(c)
RMM:   1    -0.100443823211E+03    0.11340E+00   -0.52128E+00    72   0.124E+01    0.692E-01
RMM:   2    -0.100465455811E+03   -0.21633E-01   -0.26712E-01    72   0.317E+00    0.439E-01
RMM:   3    -0.100468166573E+03   -0.27108E-02   -0.45717E-02    74   0.110E+00    0.255E-01
RMM:   4    -0.100468330090E+03   -0.16352E-03   -0.79896E-03    73   0.459E-01    0.701E-02
RMM:   5    -0.100468582045E+03   -0.25195E-03   -0.26374E-03    81   0.225E-01    0.503E-02
RMM:   6    -0.100468599190E+03   -0.17145E-04   -0.26134E-04    73   0.799E-02    0.243E-02
RMM:   7    -0.100468618588E+03   -0.19399E-04   -0.73673E-05    64   0.388E-02    0.126E-02
RMM:   8    -0.100468634451E+03   -0.15863E-04   -0.27054E-05    53   0.212E-02    0.438E-03
RMM:   9    -0.100468646389E+03   -0.11938E-04   -0.62886E-06    49   0.107E-02    0.236E-03
RMM:  10    -0.100468664129E+03   -0.17740E-04   -0.34245E-06    47   0.697E-03    0.133E-03
RMM:  11    -0.100468667288E+03   -0.31595E-05   -0.11477E-06    41   0.433E-03
      2 T=   457. E= -.99582361E+02 F= -.10046867E+03 E0= -.10047060E+03  EK= 0.88629E+00 SP= 0.13E-04 SK= 0.15E-07
       N       E                     dE             d eps       ncg     rms          rms(c)
RMM:   1    -0.100280705065E+03    0.18796E+00   -0.22292E-01    72   0.262E+00    0.126E-01
RMM:   2    -0.100281699253E+03   -0.99419E-03   -0.11473E-02    72   0.561E-01    0.874E-02
RMM:   3    -0.100281883517E+03   -0.18426E-03   -0.23532E-03    76   0.208E-01    0.582E-02
RMM:   4    -0.100281894774E+03   -0.11257E-04   -0.36369E-04    72   0.838E-02    0.183E-02
RMM:   5    -0.100281906034E+03   -0.11259E-04   -0.88050E-05    62   0.428E-02    0.811E-03
RMM:   6    -0.100281907423E+03   -0.13900E-05   -0.31985E-05    54   0.220E-02
      3 T=   367. E= -.99571678E+02 F= -.10028191E+03 E0= -.10028384E+03  EK= 0.71181E+00 SP= -.19E-02 SK= 0.31E-03
       N       E                     dE             d eps       ncg     rms          rms(c)
RMM:   1    -0.100151900573E+03    0.13001E+00   -0.12223E-01    72   0.230E+00    0.113E-01
RMM:   2    -0.100152502756E+03   -0.60218E-03   -0.58097E-03    72   0.381E-01    0.819E-02
RMM:   3    -0.100152584488E+03   -0.81732E-04   -0.92561E-04    73   0.142E-01    0.483E-02
RMM:   4    -0.100152613325E+03   -0.28837E-04   -0.22938E-04    69   0.677E-02    0.105E-02
RMM:   5    -0.100152618951E+03   -0.56260E-05   -0.47048E-05    58   0.284E-02    0.808E-03
RMM:   6    -0.100152625012E+03   -0.60606E-05   -0.17533E-05    52   0.158E-02
      4 T=   304. E= -.99569815E+02 F= -.10015263E+03 E0= -.10015456E+03  EK= 0.58960E+00 SP= -.97E-02 SK= 0.30E-02
       N       E                     dE             d eps       ncg     rms          rms(c)
RMM:   1    -0.100113952385E+03    0.38667E-01   -0.19878E-02    72   0.920E-01    0.477E-02
RMM:   2    -0.100114053075E+03   -0.10069E-03   -0.10090E-03    71   0.186E-01    0.324E-02
RMM:   3    -0.100114090848E+03   -0.37773E-04   -0.24988E-04    75   0.751E-02    0.149E-02
RMM:   4    -0.100114101668E+03   -0.10820E-04   -0.40580E-05    57   0.299E-02    0.494E-03
RMM:   5    -0.100114106647E+03   -0.49789E-05   -0.81231E-06    47   0.138E-02    0.188E-03
RMM:   6    -0.100114109648E+03   -0.30013E-05   -0.22866E-06    46   0.726E-03
      5 T=   286. E= -.99576151E+02 F= -.10011411E+03 E0= -.10011604E+03  EK= 0.55466E+00 SP= -.27E-01 SK= 0.98E-02
       N       E                     dE             d eps       ncg     rms          rms(c)
RMM:   1    -0.100076595254E+03    0.37511E-01   -0.37460E-02    72   0.108E+00    0.917E-02
RMM:   2    -0.100076670167E+03   -0.74913E-04   -0.18030E-03    72   0.217E-01    0.607E-02
RMM:   3    -0.100076665447E+03    0.47202E-05   -0.51556E-04    72   0.915E-02    0.181E-02
RMM:   4    -0.100076667698E+03   -0.22513E-05   -0.80295E-05    61   0.361E-02    0.146E-02
RMM:   5    -0.100076668034E+03   -0.33615E-06   -0.32357E-05    54   0.211E-02    0.567E-03
RMM:   6    -0.100076667687E+03    0.34737E-06   -0.68697E-06    48   0.109E-02
      6 T=   273. E= -.99580178E+02 F= -.10007667E+03 E0= -.10007860E+03  EK= 0.52862E+00 SP= -.53E-01 SK= 0.21E-01
       N       E                     dE             d eps       ncg     rms          rms(c)
RMM:   1    -0.999784731629E+02    0.98195E-01   -0.56296E-02    72   0.132E+00    0.945E-02
RMM:   2    -0.999786513072E+02   -0.17814E-03   -0.29609E-03    72   0.286E-01    0.634E-02
RMM:   3    -0.999786413183E+02    0.99889E-05   -0.62961E-04    73   0.108E-01    0.209E-02
RMM:   4    -0.999786540817E+02   -0.12763E-04   -0.13548E-04    67   0.451E-02    0.150E-02
RMM:   5    -0.999786534047E+02    0.67695E-06   -0.24917E-05    54   0.217E-02    0.400E-03
RMM:   6    -0.999786542889E+02   -0.88419E-06   -0.56381E-06    48   0.109E-02
      7 T=   232. E= -.99579783E+02 F= -.99978654E+02 E0= -.99980587E+02  EK= 0.45076E+00 SP= -.91E-01 SK= 0.39E-01
       N       E                     dE             d eps       ncg     rms          rms(c)
RMM:   1    -0.998387979952E+02    0.13986E+00   -0.61086E-02    72   0.140E+00    0.706E-02
RMM:   2    -0.998390778803E+02   -0.27989E-03   -0.33896E-03    72   0.347E-01    0.449E-02
RMM:   3    -0.998391141908E+02   -0.36311E-04   -0.62246E-04    75   0.121E-01    0.261E-02
RMM:   4    -0.998391198999E+02   -0.57091E-05   -0.13091E-04    73   0.525E-02    0.925E-03
RMM:   5    -0.998391240603E+02   -0.41604E-05   -0.40663E-05    55   0.255E-02    0.601E-03
RMM:   6    -0.998391245615E+02   -0.50125E-06   -0.66886E-06    48   0.116E-02
      8 T=   174. E= -.99574666E+02 F= -.99839125E+02 E0= -.99841057E+02  EK= 0.33732E+00 SP= -.14E+00 SK= 0.68E-01
       N       E                     dE             d eps       ncg     rms          rms(c)
RMM:   1    -0.997532120882E+02    0.85912E-01   -0.93773E-02    72   0.176E+00    0.920E-02
RMM:   2    -0.997535536620E+02   -0.34157E-03   -0.46077E-03    72   0.436E-01    0.567E-02
RMM:   3    -0.997536059235E+02   -0.52261E-04   -0.83982E-04    74   0.152E-01    0.294E-02
RMM:   4    -0.997536127570E+02   -0.68335E-05   -0.13212E-04    71   0.617E-02    0.112E-02
RMM:   5    -0.997536181920E+02   -0.54350E-05   -0.46483E-05    60   0.317E-02    0.598E-03
RMM:   6    -0.997536204547E+02   -0.22627E-05   -0.75646E-06    48   0.135E-02
      9 T=   144. E= -.99567044E+02 F= -.99753620E+02 E0= -.99755553E+02  EK= 0.27956E+00 SP= -.21E+00 SK= 0.11E+00
       N       E                     dE             d eps       ncg     rms          rms(c)
RMM:   1    -0.998269381647E+02   -0.73320E-01   -0.74667E-02    72   0.155E+00    0.112E-01
RMM:   2    -0.998271723581E+02   -0.23419E-03   -0.41937E-03    72   0.343E-01    0.745E-02
RMM:   3    -0.998271842793E+02   -0.11921E-04   -0.11042E-03    75   0.138E-01    0.259E-02
RMM:   4    -0.998271974617E+02   -0.13182E-04   -0.17799E-04    71   0.576E-02    0.181E-02
RMM:   5    -0.998271999213E+02   -0.24595E-05   -0.45000E-05    59   0.298E-02    0.519E-03
RMM:   6    -0.998272006583E+02   -0.73705E-06   -0.13961E-05    51   0.157E-02
     10 T=   195. E= -.99568493E+02 F= -.99827201E+02 E0= -.99829133E+02  EK= 0.37766E+00 SP= -.29E+00 SK= 0.17E+00
       N       E                     dE             d eps       ncg     rms          rms(c)
RMM:   1    -0.100010950851E+03   -0.18375E+00   -0.19385E-02    72   0.774E-01    0.414E-02
RMM:   2    -0.100011124246E+03   -0.17340E-03   -0.19545E-03    74   0.183E-01    0.265E-02
RMM:   3    -0.100011173115E+03   -0.48869E-04   -0.48169E-04    75   0.759E-02    0.187E-02
RMM:   4    -0.100011185060E+03   -0.11944E-04   -0.91448E-05    61   0.335E-02    0.753E-03
RMM:   5    -0.100011189079E+03   -0.40198E-05   -0.10555E-05    48   0.148E-02    0.248E-03
RMM:   6    -0.100011190556E+03   -0.14764E-05   -0.25535E-06    45   0.769E-03
     11 T=   308. E= -.99580608E+02 F= -.10001119E+03 E0= -.10001312E+03  EK= 0.59814E+00 SP= -.38E+00 SK= 0.22E+00
       N       E                     dE             d eps       ncg     rms          rms(c)
RMM:   1    -0.100121790919E+03   -0.11060E+00   -0.69014E-02    72   0.163E+00    0.866E-02
RMM:   2    -0.100122125676E+03   -0.33476E-03   -0.37282E-03    71   0.311E-01    0.620E-02
RMM:   3    -0.100122177009E+03   -0.51333E-04   -0.78449E-04    76   0.119E-01    0.352E-02
RMM:   4    -0.100122188240E+03   -0.11231E-04   -0.14910E-04    69   0.526E-02    0.102E-02
RMM:   5    -0.100122192489E+03   -0.42489E-05   -0.36347E-05    54   0.250E-02    0.615E-03
RMM:   6    -0.100122194355E+03   -0.18668E-05   -0.82653E-06    48   0.128E-02
     12 T=   402. E= -.99589234E+02 F= -.10012219E+03 E0= -.10012413E+03  EK= 0.77886E+00 SP= -.49E+00 SK= 0.24E+00
       N       E                     dE             d eps       ncg     rms          rms(c)
RMM:   1    -0.100062826153E+03    0.59366E-01   -0.12311E-01    72   0.212E+00    0.114E-01
RMM:   2    -0.100063296774E+03   -0.47062E-03   -0.57439E-03    72   0.440E-01    0.765E-02
RMM:   3    -0.100063355380E+03   -0.58606E-04   -0.95228E-04    72   0.160E-01    0.402E-02
RMM:   4    -0.100063369827E+03   -0.14447E-04   -0.21769E-04    74   0.684E-02    0.116E-02
RMM:   5    -0.100063373796E+03   -0.39682E-05   -0.46140E-05    59   0.311E-02    0.726E-03
RMM:   6    -0.100063375078E+03   -0.12822E-05   -0.69590E-06    47   0.127E-02
     13 T=   422. E= -.99585435E+02 F= -.10006338E+03 E0= -.10006531E+03  EK= 0.81846E+00 SP= -.60E+00 SK= 0.26E+00
       N       E                     dE             d eps       ncg     rms          rms(c)
RMM:   1    -0.999322744735E+02    0.13110E+00   -0.20720E-01    72   0.270E+00    0.145E-01
RMM:   2    -0.999331094413E+02   -0.83497E-03   -0.10704E-02    72   0.595E-01    0.100E-01
RMM:   3    -0.999332535960E+02   -0.14415E-03   -0.24961E-03    76   0.223E-01    0.423E-02
RMM:   4    -0.999332969511E+02   -0.43355E-04   -0.47367E-04    75   0.906E-02    0.240E-02
RMM:   5    -0.999333000919E+02   -0.31408E-05   -0.77928E-05    65   0.416E-02    0.768E-03
RMM:   6    -0.999333020730E+02   -0.19811E-05   -0.17921E-05    52   0.196E-02
     14 T=   410. E= -.99574247E+02 F= -.99933302E+02 E0= -.99935235E+02  EK= 0.79464E+00 SP= -.71E+00 SK= 0.27E+00
       N       E                     dE             d eps       ncg     rms          rms(c)
RMM:   1    -0.998982383087E+02    0.35062E-01   -0.14243E-01    72   0.237E+00    0.141E-01
RMM:   2    -0.998988153638E+02   -0.57706E-03   -0.71619E-03    72   0.448E-01    0.986E-02
RMM:   3    -0.998989196828E+02   -0.10432E-03   -0.17060E-03    74   0.180E-01    0.322E-02
RMM:   4    -0.998989655798E+02   -0.45897E-04   -0.43570E-04    78   0.775E-02    0.210E-02
RMM:   5    -0.998989696563E+02   -0.40765E-05   -0.68625E-05    64   0.361E-02    0.737E-03
RMM:   6    -0.998989720237E+02   -0.23674E-05   -0.16177E-05    50   0.180E-02
     15 T=   442. E= -.99574913E+02 F= -.99898972E+02 E0= -.99900905E+02  EK= 0.85783E+00 SP= -.83E+00 SK= 0.29E+00
       N       E                     dE             d eps       ncg     rms          rms(c)
RMM:   1    -0.999404470098E+02   -0.41477E-01   -0.71024E-02    72   0.168E+00    0.940E-02
RMM:   2    -0.999408907253E+02   -0.44372E-03   -0.46455E-03    74   0.337E-01    0.652E-02
RMM:   3    -0.999410550554E+02   -0.16433E-03   -0.15179E-03    79   0.144E-01    0.235E-02
RMM:   4    -0.999410720047E+02   -0.16949E-04   -0.16512E-04    74   0.544E-02    0.107E-02
RMM:   5    -0.999410787032E+02   -0.66985E-05   -0.28331E-05    55   0.242E-02    0.301E-03
RMM:   6    -0.999410823622E+02   -0.36591E-05   -0.52217E-06    47   0.112E-02
     16 T=   518. E= -.99585831E+02 F= -.99941082E+02 E0= -.99943015E+02  EK= 0.10046E+01 SP= -.94E+00 SK= 0.29E+00
       N       E                     dE             d eps       ncg     rms          rms(c)
RMM:   1    -0.999121712880E+02    0.28907E-01   -0.13139E-01    72   0.215E+00    0.149E-01
RMM:   2    -0.999126155595E+02   -0.44427E-03   -0.65936E-03    73   0.392E-01    0.104E-01
RMM:   3    -0.999126623156E+02   -0.46756E-04   -0.18545E-03    73   0.166E-01    0.298E-02
RMM:   4    -0.999126821390E+02   -0.19823E-04   -0.29108E-04    75   0.667E-02    0.215E-02
RMM:   5    -0.999126832281E+02   -0.10891E-05   -0.85246E-05    65   0.357E-02    0.624E-03
RMM:   6    -0.999126834110E+02   -0.18288E-06   -0.13376E-05    48   0.167E-02
     17 T=   569. E= -.99591468E+02 F= -.99912683E+02 E0= -.99914616E+02  EK= 0.11027E+01 SP= -.11E+01 SK= 0.28E+00
       N       E                     dE             d eps       ncg     rms          rms(c)
RMM:   1    -0.997550210482E+02    0.15766E+00   -0.14332E-01    72   0.217E+00    0.141E-01
RMM:   2    -0.997555090954E+02   -0.48805E-03   -0.69744E-03    72   0.422E-01    0.938E-02
RMM:   3    -0.997555729604E+02   -0.63865E-04   -0.17838E-03    75   0.162E-01    0.278E-02
RMM:   4    -0.997555968778E+02   -0.23917E-04   -0.26385E-04    74   0.622E-02    0.169E-02
RMM:   5    -0.997555955218E+02    0.13560E-05   -0.43869E-05    59   0.288E-02    0.397E-03
RMM:   6    -0.997555974493E+02   -0.19275E-05   -0.92637E-06    47   0.139E-02
     18 T=   556. E= -.99592408E+02 F= -.99755597E+02 E0= -.99757530E+02  EK= 0.10775E+01 SP= -.12E+01 SK= 0.26E+00
       N       E                     dE             d eps       ncg     rms          rms(c)
RMM:   1    -0.995014356259E+02    0.25416E+00   -0.13129E-01    72   0.216E+00    0.110E-01
RMM:   2    -0.995019705655E+02   -0.53494E-03   -0.60450E-03    72   0.461E-01    0.697E-02
RMM:   3    -0.995020946006E+02   -0.12404E-03   -0.12692E-03    74   0.165E-01    0.301E-02
RMM:   4    -0.995021204762E+02   -0.25876E-04   -0.27109E-04    74   0.677E-02    0.809E-03
RMM:   5    -0.995021259718E+02   -0.54956E-05   -0.49759E-05    56   0.304E-02    0.582E-03
RMM:   6    -0.995021287355E+02   -0.27637E-05   -0.71798E-06    48   0.122E-02
     19 T=   489. E= -.99588145E+02 F= -.99502129E+02 E0= -.99504061E+02  EK= 0.94788E+00 SP= -.13E+01 SK= 0.25E+00
       N       E                     dE             d eps       ncg     rms          rms(c)
RMM:   1    -0.992670355198E+02    0.23509E+00   -0.18512E-01    72   0.247E+00    0.153E-01
RMM:   2    -0.992678342843E+02   -0.79876E-03   -0.10387E-02    72   0.565E-01    0.105E-01
RMM:   3    -0.992679231395E+02   -0.88855E-04   -0.21961E-03    75   0.207E-01    0.401E-02
RMM:   4    -0.992679536897E+02   -0.30550E-04   -0.40488E-04    77   0.861E-02    0.182E-02
RMM:   5    -0.992679590494E+02   -0.53597E-05   -0.82169E-05    63   0.383E-02    0.870E-03
RMM:   6    -0.992679616307E+02   -0.25813E-05   -0.14408E-05    48   0.161E-02
     20 T=   428. E= -.99574804E+02 F= -.99267962E+02 E0= -.99269894E+02  EK= 0.82889E+00 SP= -.14E+01 SK= 0.26E+00
       N       E                     dE             d eps       ncg     rms          rms(c)
RMM:   1    -0.992400836603E+02    0.27875E-01   -0.22819E-01    72   0.271E+00    0.212E-01
RMM:   2    -0.992407971080E+02   -0.71345E-03   -0.12825E-02    72   0.588E-01    0.144E-01
RMM:   3    -0.992408172097E+02   -0.20102E-04   -0.35081E-03    74   0.242E-01    0.383E-02
RMM:   4    -0.992408584015E+02   -0.41192E-04   -0.63749E-04    80   0.975E-02    0.316E-02
RMM:   5    -0.992408627374E+02   -0.43360E-05   -0.14923E-04    69   0.491E-02    0.905E-03
RMM:   6    -0.992408618364E+02    0.90100E-06   -0.25048E-05    53   0.222E-02
     21 T=   465. E= -.99572975E+02 F= -.99240862E+02 E0= -.99242794E+02  EK= 0.90175E+00 SP= -.15E+01 SK= 0.28E+00
       N       E                     dE             d eps       ncg     rms          rms(c)
RMM:   1    -0.993973794059E+02   -0.15652E+00   -0.12887E-01    72   0.214E+00    0.127E-01
RMM:   2    -0.993983128452E+02   -0.93344E-03   -0.98035E-03    73   0.454E-01    0.895E-02
RMM:   3    -0.993986021942E+02   -0.28935E-03   -0.26359E-03    77   0.192E-01    0.307E-02
RMM:   4    -0.993986552524E+02   -0.53058E-04   -0.47649E-04    76   0.769E-02    0.120E-02
RMM:   5    -0.993986667515E+02   -0.11499E-04   -0.64518E-05    58   0.309E-02    0.525E-03
RMM:   6    -0.993986707415E+02   -0.39900E-05   -0.61596E-06    47   0.114E-02
     22 T=   599. E= -.99594382E+02 F= -.99398671E+02 E0= -.99400603E+02  EK= 0.11607E+01 SP= -.16E+01 SK= 0.27E+00
       N       E                     dE             d eps       ncg     rms          rms(c)
RMM:   1    -0.994427511711E+02   -0.44084E-01   -0.26468E-01    72   0.317E+00    0.166E-01
RMM:   2    -0.994441936464E+02   -0.14425E-02   -0.15013E-02    72   0.595E-01    0.124E-01
RMM:   3    -0.994443778856E+02   -0.18424E-03   -0.26787E-03    74   0.227E-01    0.746E-02
RMM:   4    -0.994444370908E+02   -0.59205E-04   -0.77409E-04    72   0.113E-01    0.179E-02
RMM:   5    -0.994444533756E+02   -0.16285E-04   -0.21318E-04    71   0.519E-02    0.151E-02
RMM:   6    -0.994444578400E+02   -0.44645E-05   -0.41051E-05    56   0.232E-02
     23 T=   690. E= -.99610542E+02 F= -.99444458E+02 E0= -.99446390E+02  EK= 0.13387E+01 SP= -.17E+01 SK= 0.23E+00
       N       E                     dE             d eps       ncg     rms          rms(c)
RMM:   1    -0.992204311993E+02    0.22402E+00   -0.35254E-01    72   0.367E+00    0.171E-01
RMM:   2    -0.992220720516E+02   -0.16409E-02   -0.17774E-02    72   0.710E-01    0.122E-01
RMM:   3    -0.992223089984E+02   -0.23695E-03   -0.30984E-03    75   0.262E-01    0.846E-02
RMM:   4    -0.992223421906E+02   -0.33192E-04   -0.70572E-04    71   0.123E-01    0.161E-02
RMM:   5    -0.992223583907E+02   -0.16200E-04   -0.18765E-04    76   0.560E-02    0.162E-02
RMM:   6    -0.992223576862E+02    0.70451E-06   -0.25372E-05    52   0.213E-02
     24 T=   654. E= -.99599979E+02 F= -.99222358E+02 E0= -.99224290E+02  EK= 0.12685E+01 SP= -.18E+01 SK= 0.19E+00
       N       E                     dE             d eps       ncg     rms          rms(c)
RMM:   1    -0.989675513774E+02    0.25481E+00   -0.46666E-01    72   0.376E+00    0.249E-01
RMM:   2    -0.989687367904E+02   -0.11854E-02   -0.20222E-02    72   0.823E-01    0.167E-01
RMM:   3    -0.989688240415E+02   -0.87251E-04   -0.45114E-03    73   0.309E-01    0.505E-02
RMM:   4    -0.989688613565E+02   -0.37315E-04   -0.66131E-04    73   0.120E-01    0.363E-02
RMM:   5    -0.989688798785E+02   -0.18522E-04   -0.21618E-04    72   0.635E-02    0.919E-03
RMM:   6    -0.989688833479E+02   -0.34694E-05   -0.51488E-05    56   0.308E-02
     25 T=   596. E= -.99574640E+02 F= -.98968883E+02 E0= -.98970816E+02  EK= 0.11550E+01 SP= -.19E+01 SK= 0.16E+00
       N       E                     dE             d eps       ncg     rms          rms(c)
RMM:   1    -0.990194861949E+02   -0.50606E-01   -0.48988E-01    72   0.416E+00    0.238E-01
RMM:   2    -0.990215404050E+02   -0.20542E-02   -0.24104E-02    73   0.760E-01    0.172E-01
RMM:   3    -0.990216159464E+02   -0.75541E-04   -0.39092E-03    72   0.281E-01    0.771E-02
RMM:   4    -0.990217288138E+02   -0.11287E-03   -0.10300E-03    77   0.130E-01    0.340E-02
RMM:   5    -0.990217439909E+02   -0.15177E-04   -0.26566E-04    72   0.626E-02    0.156E-02
RMM:   6    -0.990217533636E+02   -0.93727E-05   -0.55248E-05    59   0.306E-02
     26 T=   672. E= -.99585497E+02 F= -.99021753E+02 E0= -.99023686E+02  EK= 0.13033E+01 SP= -.20E+01 SK= 0.14E+00
       N       E                     dE             d eps       ncg     rms          rms(c)
RMM:   1    -0.992244856725E+02   -0.20274E+00   -0.13475E-01    72   0.225E+00    0.130E-01
RMM:   2    -0.992252685063E+02   -0.78283E-03   -0.89086E-03    74   0.465E-01    0.859E-02
RMM:   3    -0.992254858958E+02   -0.21739E-03   -0.22858E-03    78   0.188E-01    0.448E-02
RMM:   4    -0.992255169962E+02   -0.31100E-04   -0.28805E-04    76   0.743E-02    0.162E-02
RMM:   5    -0.992255288991E+02   -0.11903E-04   -0.76543E-05    65   0.366E-02    0.385E-03
RMM:   6    -0.992255327617E+02   -0.38627E-05   -0.13457E-05    49   0.161E-02
     27 T=   826. E= -.99607826E+02 F= -.99225533E+02 E0= -.99227465E+02  EK= 0.16020E+01 SP= -.21E+01 SK= 0.10E+00
       N       E                     dE             d eps       ncg     rms          rms(c)
RMM:   1    -0.992760844508E+02   -0.50556E-01   -0.26520E-01    72   0.292E+00    0.227E-01
RMM:   2    -0.992770246172E+02   -0.94017E-03   -0.14973E-02    72   0.596E-01    0.152E-01
RMM:   3    -0.992771212334E+02   -0.96616E-04   -0.37310E-03    74   0.243E-01    0.473E-02
RMM:   4    -0.992771829156E+02   -0.61682E-04   -0.77140E-04    77   0.103E-01    0.331E-02
RMM:   5    -0.992771873282E+02   -0.44126E-05   -0.19977E-04    68   0.528E-02    0.118E-02
RMM:   6    -0.992771878110E+02   -0.48286E-06   -0.45039E-05    58   0.260E-02
     28 T=   907. E= -.99611554E+02 F= -.99277188E+02 E0= -.99279120E+02  EK= 0.17585E+01 SP= -.21E+01 SK= 0.53E-01
       N       E                     dE             d eps       ncg     rms          rms(c)
RMM:   1    -0.991280750917E+02    0.14911E+00   -0.24985E-01    72   0.280E+00    0.162E-01
RMM:   2    -0.991293477171E+02   -0.12726E-02   -0.15371E-02    72   0.641E-01    0.106E-01
RMM:   3    -0.991296003899E+02   -0.25267E-03   -0.37739E-03    78   0.239E-01    0.511E-02
RMM:   4    -0.991296305443E+02   -0.30154E-04   -0.48341E-04    73   0.955E-02    0.185E-02
RMM:   5    -0.991296451597E+02   -0.14615E-04   -0.13605E-04    73   0.462E-02    0.110E-02
RMM:   6    -0.991296521762E+02   -0.70165E-05   -0.17933E-05    51   0.182E-02
     29 T=   870. E= -.99609411E+02 F= -.99129652E+02 E0= -.99131585E+02  EK= 0.16873E+01 SP= -.22E+01 SK= 0.19E-01
       N       E                     dE             d eps       ncg     rms          rms(c)
RMM:   1    -0.988485136699E+02    0.28113E+00   -0.24942E-01    72   0.294E+00    0.136E-01
RMM:   2    -0.988500483065E+02   -0.15346E-02   -0.16407E-02    72   0.697E-01    0.848E-02
RMM:   3    -0.988504961118E+02   -0.44781E-03   -0.43755E-03    78   0.271E-01    0.534E-02
RMM:   4    -0.988505553589E+02   -0.59247E-04   -0.69088E-04    73   0.116E-01    0.157E-02
RMM:   5    -0.988505761024E+02   -0.20744E-04   -0.16596E-04    75   0.560E-02    0.885E-03
RMM:   6    -0.988505812150E+02   -0.51126E-05   -0.24931E-05    51   0.213E-02
     30 T=   751. E= -.99598900E+02 F= -.98850581E+02 E0= -.98852514E+02  EK= 0.14552E+01 SP= -.22E+01 SK= 0.39E-02
       N       E                     dE             d eps       ncg     rms          rms(c)
RMM:   1    -0.986398033239E+02    0.21077E+00   -0.39397E-01    72   0.332E+00    0.226E-01
RMM:   2    -0.986416392921E+02   -0.18360E-02   -0.24878E-02    72   0.797E-01    0.149E-01
RMM:   3    -0.986419746560E+02   -0.33536E-03   -0.60139E-03    76   0.305E-01    0.490E-02
RMM:   4    -0.986420778595E+02   -0.10320E-03   -0.12102E-03    76   0.129E-01    0.302E-02
RMM:   5    -0.986420958541E+02   -0.17995E-04   -0.19866E-04    74   0.601E-02    0.814E-03
RMM:   6    -0.986421017682E+02   -0.59141E-05   -0.43644E-05    57   0.275E-02
     31 T=   661. E= -.99576418E+02 F= -.98642102E+02 E0= -.98644034E+02  EK= 0.12815E+01 SP= -.22E+01 SK= 0.32E-03
       N       E                     dE             d eps       ncg     rms          rms(c)
RMM:   1    -0.988048644592E+02   -0.16277E+00   -0.43473E-01    72   0.352E+00    0.300E-01
RMM:   2    -0.988062274424E+02   -0.13630E-02   -0.26123E-02    72   0.761E-01    0.192E-01
RMM:   3    -0.988064826809E+02   -0.25524E-03   -0.70541E-03    75   0.314E-01    0.627E-02
RMM:   4    -0.988065872029E+02   -0.10452E-03   -0.12739E-03    76   0.134E-01    0.410E-02
RMM:   5    -0.988066387508E+02   -0.51548E-04   -0.38565E-04    71   0.708E-02    0.178E-02
RMM:   6    -0.988066292783E+02    0.94725E-05   -0.72830E-05    62   0.341E-02
     32 T=   740. E= -.99587776E+02 F= -.98806629E+02 E0= -.98808562E+02  EK= 0.14340E+01 SP= -.22E+01 SK= 0.50E-03
       N       E                     dE             d eps       ncg     rms          rms(c)
RMM:   1    -0.991827095884E+02   -0.37607E+00   -0.25441E-01    72   0.295E+00    0.137E-01
RMM:   2    -0.991848439575E+02   -0.21344E-02   -0.22113E-02    75   0.617E-01    0.977E-02
RMM:   3    -0.991854300260E+02   -0.58607E-03   -0.57368E-03    76   0.252E-01    0.731E-02
RMM:   4    -0.991854994844E+02   -0.69458E-04   -0.89234E-04    76   0.109E-01    0.256E-02
RMM:   5    -0.991855272439E+02   -0.27760E-04   -0.14419E-04    68   0.498E-02    0.123E-02
RMM:   6    -0.991855275052E+02   -0.26128E-06   -0.26512E-05    53   0.229E-02
     33 T=   907. E= -.99619205E+02 F= -.99185528E+02 E0= -.99187460E+02  EK= 0.17589E+01 SP= -.22E+01 SK= 0.98E-02
       N       E                     dE             d eps       ncg     rms          rms(c)
RMM:   1    -0.993368034960E+02   -0.15128E+00   -0.56241E-01    72   0.440E+00    0.221E-01
RMM:   2    -0.993399345957E+02   -0.31311E-02   -0.32313E-02    73   0.821E-01    0.161E-01
RMM:   3    -0.993404748214E+02   -0.54023E-03   -0.68778E-03    76   0.318E-01    0.113E-01
RMM:   4    -0.993405027885E+02   -0.27967E-04   -0.14401E-03    71   0.154E-01    0.252E-02
RMM:   5    -0.993405327832E+02   -0.29995E-04   -0.32668E-04    74   0.726E-02    0.193E-02
RMM:   6    -0.993405419100E+02   -0.91268E-05   -0.11679E-04    63   0.397E-02    0.116E-02
RMM:   7    -0.993405409611E+02    0.94891E-06   -0.25268E-05    53   0.202E-02
     34 T=   954. E= -.99618766E+02 F= -.99340541E+02 E0= -.99342474E+02  EK= 0.18488E+01 SP= -.22E+01 SK= 0.42E-01
       N       E                     dE             d eps       ncg     rms          rms(c)
RMM:   1    -0.992244988131E+02    0.11604E+00   -0.61468E-01    72   0.459E+00    0.257E-01
RMM:   2    -0.992271815960E+02   -0.26828E-02   -0.30928E-02    73   0.876E-01    0.172E-01
RMM:   3    -0.992276407892E+02   -0.45919E-03   -0.57495E-03    74   0.329E-01    0.926E-02
RMM:   4    -0.992277474842E+02   -0.10669E-03   -0.13882E-03    75   0.144E-01    0.210E-02
RMM:   5    -0.992277686914E+02   -0.21207E-04   -0.24946E-04    73   0.642E-02    0.143E-02
RMM:   6    -0.992277731818E+02   -0.44904E-05   -0.46076E-05    58   0.276E-02
     35 T=   855. E= -.99593769E+02 F= -.99227773E+02 E0= -.99229706E+02  EK= 0.16571E+01 SP= -.21E+01 SK= 0.91E-01
       N       E                     dE             d eps       ncg     rms          rms(c)
RMM:   1    -0.991524116016E+02    0.75357E-01   -0.11313E+00    72   0.630E+00    0.336E-01
RMM:   2    -0.991569504895E+02   -0.45389E-02   -0.50300E-02    72   0.118E+00    0.231E-01
RMM:   3    -0.991579466482E+02   -0.99616E-03   -0.10139E-02    75   0.435E-01    0.686E-02
RMM:   4    -0.991582276641E+02   -0.28102E-03   -0.25829E-03    79   0.175E-01    0.462E-02
RMM:   5    -0.991582223443E+02    0.53197E-05   -0.37774E-04    71   0.802E-02    0.148E-02
RMM:   6    -0.991582264652E+02   -0.41208E-05   -0.83947E-05    63   0.379E-02
     36 T=   766. E= -.99578666E+02 F= -.99158226E+02 E0= -.99160159E+02  EK= 0.14845E+01 SP= -.20E+01 SK= 0.14E+00
       N       E                     dE             d eps       ncg     rms          rms(c)
RMM:   1    -0.993330062905E+02   -0.17478E+00   -0.64415E-01    72   0.472E+00    0.314E-01
RMM:   2    -0.993356723610E+02   -0.26661E-02   -0.25971E-02    73   0.864E-01    0.214E-01
RMM:   3    -0.993364465960E+02   -0.77423E-03   -0.56505E-03    73   0.356E-01    0.422E-02
RMM:   4    -0.993365600196E+02   -0.11342E-03   -0.12450E-03    74   0.133E-01    0.338E-02
RMM:   5    -0.993365870871E+02   -0.27067E-04   -0.30291E-04    71   0.699E-02    0.968E-03
RMM:   6    -0.993365989171E+02   -0.11830E-04   -0.57305E-05    56   0.308E-02    0.909E-03
RMM:   7    -0.993366119685E+02   -0.13051E-04   -0.12652E-05    49   0.138E-02    0.322E-03
RMM:   8    -0.993366217197E+02   -0.97512E-05   -0.31473E-06    47   0.760E-03
     37 T=   780. E= -.99594182E+02 F= -.99336622E+02 E0= -.99338554E+02  EK= 0.15131E+01 SP= -.20E+01 SK= 0.18E+00
       N       E                     dE             d eps       ncg     rms          rms(c)
RMM:   1    -0.995739789395E+02   -0.23737E+00   -0.30693E-01    72   0.333E+00    0.223E-01
RMM:   2    -0.995759052944E+02   -0.19264E-02   -0.18193E-02    76   0.624E-01    0.155E-01
RMM:   3    -0.995763680063E+02   -0.46271E-03   -0.32746E-03    71   0.256E-01    0.330E-02
RMM:   4    -0.995764647936E+02   -0.96787E-04   -0.94548E-04    80   0.107E-01    0.188E-02
RMM:   5    -0.995764724440E+02   -0.76504E-05   -0.12187E-04    68   0.470E-02    0.636E-03
RMM:   6    -0.995764753928E+02   -0.29488E-05   -0.22937E-05    52   0.208E-02
     38 T=   813. E= -.99604711E+02 F= -.99576475E+02 E0= -.99578408E+02  EK= 0.15762E+01 SP= -.19E+01 SK= 0.25E+00
       N       E                     dE             d eps       ncg     rms          rms(c)
RMM:   1    -0.996764056080E+02   -0.99933E-01   -0.29564E-01    72   0.313E+00    0.208E-01
RMM:   2    -0.996779368129E+02   -0.15312E-02   -0.17816E-02    73   0.611E-01    0.145E-01
RMM:   3    -0.996780374642E+02   -0.10065E-03   -0.36098E-03    74   0.233E-01    0.552E-02
RMM:   4    -0.996781199588E+02   -0.82495E-04   -0.81975E-04    77   0.101E-01    0.278E-02
RMM:   5    -0.996781184322E+02    0.15266E-05   -0.10047E-04    68   0.430E-02    0.101E-02
RMM:   6    -0.996781218619E+02   -0.34297E-05   -0.25203E-05    52   0.226E-02
     39 T=   769. E= -.99599783E+02 F= -.99678122E+02 E0= -.99680054E+02  EK= 0.14913E+01 SP= -.17E+01 SK= 0.32E+00
       N       E                     dE             d eps       ncg     rms          rms(c)
RMM:   1    -0.996273905122E+02    0.50728E-01   -0.24650E-01    72   0.283E+00    0.169E-01
RMM:   2    -0.996288373479E+02   -0.14468E-02   -0.16172E-02    73   0.605E-01    0.114E-01
RMM:   3    -0.996290899290E+02   -0.25258E-03   -0.39226E-03    74   0.228E-01    0.633E-02
RMM:   4    -0.996290871054E+02    0.28236E-05   -0.62332E-04    73   0.104E-01    0.212E-02
RMM:   5    -0.996291075500E+02   -0.20445E-04   -0.18768E-04    73   0.530E-02    0.171E-02
RMM:   6    -0.996291089834E+02   -0.14334E-05   -0.88686E-05    62   0.318E-02
     40 T=   650. E= -.99592075E+02 F= -.99629109E+02 E0= -.99631042E+02  EK= 0.12598E+01 SP= -.16E+01 SK= 0.38E+00
       N       E                     dE             d eps       ncg     rms          rms(c)
RMM:   1    -0.994938790605E+02    0.13523E+00   -0.20196E-01    72   0.269E+00    0.131E-01
RMM:   2    -0.994948703366E+02   -0.99128E-03   -0.10489E-02    73   0.570E-01    0.890E-02
RMM:   3    -0.994950802941E+02   -0.20996E-03   -0.21980E-03    74   0.210E-01    0.398E-02
RMM:   4    -0.994951283417E+02   -0.48048E-04   -0.48112E-04    77   0.912E-02    0.139E-02
RMM:   5    -0.994951332978E+02   -0.49561E-05   -0.70362E-05    63   0.388E-02    0.643E-03
RMM:   6    -0.994951357872E+02   -0.24894E-05   -0.12845E-05    50   0.168E-02
     41 T=   502. E= -.99582485E+02 F= -.99495136E+02 E0= -.99497068E+02  EK= 0.97375E+00 SP= -.15E+01 SK= 0.41E+00
       N       E                     dE             d eps       ncg     rms          rms(c)
RMM:   1    -0.994094736520E+02    0.85660E-01   -0.23874E-01    72   0.274E+00    0.170E-01
RMM:   2    -0.994105416160E+02   -0.10680E-02   -0.13715E-02    72   0.598E-01    0.117E-01
RMM:   3    -0.994107646848E+02   -0.22307E-03   -0.38038E-03    76   0.232E-01    0.428E-02
RMM:   4    -0.994107868559E+02   -0.22171E-04   -0.39041E-04    75   0.908E-02    0.227E-02
RMM:   5    -0.994107892440E+02   -0.23880E-05   -0.92424E-05    69   0.436E-02    0.585E-03
RMM:   6    -0.994107923700E+02   -0.31261E-05   -0.20765E-05    51   0.197E-02
     42 T=   399. E= -.99574593E+02 F= -.99410792E+02 E0= -.99412725E+02  EK= 0.77371E+00 SP= -.13E+01 SK= 0.39E+00
       N       E                     dE             d eps       ncg     rms          rms(c)
RMM:   1    -0.995031459599E+02   -0.92357E-01   -0.19077E-01    72   0.249E+00    0.183E-01
RMM:   2    -0.995037115635E+02   -0.56560E-03   -0.91016E-03    72   0.508E-01    0.127E-01
RMM:   3    -0.995037310293E+02   -0.19466E-04   -0.22296E-03    72   0.210E-01    0.321E-02
RMM:   4    -0.995037624144E+02   -0.31385E-04   -0.46320E-04    75   0.849E-02    0.262E-02
RMM:   5    -0.995037693942E+02   -0.69799E-05   -0.91778E-05    67   0.431E-02    0.716E-03
RMM:   6    -0.995037701335E+02   -0.73928E-06   -0.21472E-05    52   0.208E-02
     43 T=   388. E= -.99583910E+02 F= -.99503770E+02 E0= -.99505703E+02  EK= 0.75295E+00 SP= -.12E+01 SK= 0.36E+00
       N       E                     dE             d eps       ncg     rms          rms(c)
RMM:   1    -0.996628090325E+02   -0.15904E+00   -0.79286E-02    72   0.171E+00    0.105E-01
RMM:   2    -0.996633429837E+02   -0.53395E-03   -0.64747E-03    74   0.378E-01    0.678E-02
RMM:   3    -0.996635481373E+02   -0.20515E-03   -0.19416E-03    79   0.160E-01    0.387E-02
RMM:   4    -0.996635753344E+02   -0.27197E-04   -0.21969E-04    73   0.652E-02    0.136E-02
RMM:   5    -0.996635898522E+02   -0.14518E-04   -0.63189E-05    62   0.340E-02    0.732E-03
RMM:   6    -0.996635910449E+02   -0.11927E-05   -0.10434E-05    48   0.145E-02
     44 T=   409. E= -.99596163E+02 F= -.99663591E+02 E0= -.99665524E+02  EK= 0.79298E+00 SP= -.11E+01 SK= 0.34E+00
       N       E                     dE             d eps       ncg     rms          rms(c)
RMM:   1    -0.996815526976E+02   -0.17963E-01   -0.13241E-01    72   0.214E+00    0.125E-01
RMM:   2    -0.996823483102E+02   -0.79561E-03   -0.93214E-03    73   0.443E-01    0.883E-02
RMM:   3    -0.996825386091E+02   -0.19030E-03   -0.23812E-03    75   0.177E-01    0.601E-02
RMM:   4    -0.996825435139E+02   -0.49047E-05   -0.44227E-04    72   0.850E-02    0.165E-02
RMM:   5    -0.996825624696E+02   -0.18956E-04   -0.14300E-04    71   0.456E-02    0.165E-02
RMM:   6    -0.996825604795E+02    0.19901E-05   -0.11324E-05    48   0.149E-02
     45 T=   367. E= -.99592500E+02 F= -.99682560E+02 E0= -.99684493E+02  EK= 0.71155E+00 SP= -.94E+00 SK= 0.32E+00
       N       E                     dE             d eps       ncg     rms          rms(c)
RMM:   1    -0.995550952632E+02    0.12747E+00   -0.11780E-01    72   0.199E+00    0.111E-01
RMM:   2    -0.995556092282E+02   -0.51396E-03   -0.67412E-03    72   0.441E-01    0.750E-02
RMM:   3    -0.995557588695E+02   -0.14964E-03   -0.17186E-03    76   0.167E-01    0.506E-02
RMM:   4    -0.995557611650E+02   -0.22954E-05   -0.21561E-04    71   0.683E-02    0.167E-02
RMM:   5    -0.995557768389E+02   -0.15674E-04   -0.92643E-05    65   0.392E-02    0.123E-02
RMM:   6    -0.995557748551E+02    0.19838E-05   -0.12376E-05    48   0.160E-02
     46 T=   268. E= -.99578992E+02 F= -.99555775E+02 E0= -.99557707E+02  EK= 0.51920E+00 SP= -.82E+00 SK= 0.28E+00
       N       E                     dE             d eps       ncg     rms          rms(c)
RMM:   1    -0.994651872781E+02    0.90590E-01   -0.17973E-01    72   0.239E+00    0.149E-01
RMM:   2    -0.994660499823E+02   -0.86270E-03   -0.10387E-02    72   0.548E-01    0.974E-02
RMM:   3    -0.994662047481E+02   -0.15477E-03   -0.21945E-03    74   0.207E-01    0.431E-02
RMM:   4    -0.994662457019E+02   -0.40954E-04   -0.49228E-04    76   0.925E-02    0.146E-02
RMM:   5    -0.994662504068E+02   -0.47049E-05   -0.77382E-05    66   0.407E-02    0.824E-03
RMM:   6    -0.994662508775E+02   -0.47076E-06   -0.18235E-05    52   0.186E-02
     47 T=   200. E= -.99570588E+02 F= -.99466251E+02 E0= -.99468184E+02  EK= 0.38838E+00 SP= -.71E+00 SK= 0.22E+00
       N       E                     dE             d eps       ncg     rms          rms(c)
RMM:   1    -0.995575846030E+02   -0.91334E-01   -0.10975E-01    72   0.190E+00    0.123E-01
RMM:   2    -0.995580509242E+02   -0.46632E-03   -0.63763E-03    72   0.400E-01    0.850E-02
RMM:   3    -0.995581100029E+02   -0.59079E-04   -0.14752E-03    74   0.159E-01    0.301E-02
RMM:   4    -0.995581546282E+02   -0.44625E-04   -0.39821E-04    79   0.713E-02    0.179E-02
RMM:   5    -0.995581626641E+02   -0.80358E-05   -0.43920E-05    59   0.275E-02    0.680E-03
RMM:   6    -0.995581694565E+02   -0.67925E-05   -0.88322E-06    48   0.121E-02
     48 T=   224. E= -.99577224E+02 F= -.99558169E+02 E0= -.99560102E+02  EK= 0.43478E+00 SP= -.62E+00 SK= 0.16E+00
       N       E                     dE             d eps       ncg     rms          rms(c)
RMM:   1    -0.997585598443E+02   -0.20040E+00   -0.60439E-02    72   0.143E+00    0.805E-02
RMM:   2    -0.997589159845E+02   -0.35614E-03   -0.41700E-03    75   0.307E-01    0.560E-02
RMM:   3    -0.997589934133E+02   -0.77429E-04   -0.85375E-04    74   0.120E-01    0.243E-02
RMM:   4    -0.997590182919E+02   -0.24879E-04   -0.21486E-04    71   0.534E-02    0.108E-02
RMM:   5    -0.997590258308E+02   -0.75389E-05   -0.36437E-05    54   0.229E-02    0.327E-03
RMM:   6    -0.997590290644E+02   -0.32335E-05   -0.51438E-06    47   0.109E-02
     49 T=   300. E= -.99586298E+02 F= -.99759029E+02 E0= -.99760962E+02  EK= 0.58215E+00 SP= -.53E+00 SK= 0.12E+00
       N       E                     dE             d eps       ncg     rms          rms(c)
RMM:   1    -0.999197559269E+02   -0.16073E+00   -0.10884E-01    72   0.186E+00    0.122E-01
RMM:   2    -0.999202720625E+02   -0.51614E-03   -0.70011E-03    74   0.388E-01    0.857E-02
RMM:   3    -0.999203337249E+02   -0.61662E-04   -0.16548E-03    74   0.154E-01    0.325E-02
RMM:   4    -0.999203647280E+02   -0.31003E-04   -0.32954E-04    77   0.660E-02    0.178E-02
RMM:   5    -0.999203669452E+02   -0.22172E-05   -0.33953E-05    58   0.269E-02    0.644E-03
RMM:   6    -0.999203705551E+02   -0.36099E-05   -0.11118E-05    48   0.147E-02
     50 T=   357. E= -.99587906E+02 F= -.99920371E+02 E0= -.99922303E+02  EK= 0.69129E+00 SP= -.46E+00 SK= 0.10E+00
       N       E                     dE             d eps       ncg     rms          rms(c)
RMM:   1    -0.999839922600E+02   -0.63625E-01   -0.10876E-01    72   0.181E+00    0.110E-01
RMM:   2    -0.999845355097E+02   -0.54325E-03   -0.65877E-03    72   0.397E-01    0.742E-02
RMM:   3    -0.999846190464E+02   -0.83537E-04   -0.15419E-03    75   0.145E-01    0.353E-02
RMM:   4    -0.999846284697E+02   -0.94233E-05   -0.22323E-04    71   0.619E-02    0.107E-02
RMM:   5    -0.999846360060E+02   -0.75363E-05   -0.65333E-05    62   0.302E-02    0.776E-03
RMM:   6    -0.999846403581E+02   -0.43521E-05   -0.16065E-05    50   0.152E-02
     51 T=   365. E= -.99585252E+02 F= -.99984640E+02 E0= -.99986573E+02  EK= 0.70789E+00 SP= -.39E+00 SK= 0.85E-01
       N       E                     dE             d eps       ncg     rms          rms(c)
RMM:   1    -0.999757435199E+02    0.88925E-02   -0.10251E-01    72   0.179E+00    0.898E-02
RMM:   2    -0.999763537374E+02   -0.61022E-03   -0.64702E-03    72   0.420E-01    0.610E-02
RMM:   3    -0.999765280572E+02   -0.17432E-03   -0.18524E-03    78   0.160E-01    0.322E-02
RMM:   4    -0.999765374329E+02   -0.93756E-05   -0.17577E-04    72   0.625E-02    0.823E-03
RMM:   5    -0.999765431308E+02   -0.56980E-05   -0.55120E-05    61   0.314E-02    0.509E-03
RMM:   6    -0.999765441294E+02   -0.99855E-06   -0.84243E-06    48   0.135E-02
     52 T=   341. E= -.99579284E+02 F= -.99976544E+02 E0= -.99978477E+02  EK= 0.66174E+00 SP= -.33E+00 SK= 0.69E-01
       N       E                     dE             d eps       ncg     rms          rms(c)
RMM:   1    -0.999822068121E+02   -0.56637E-02   -0.13760E-01    72   0.202E+00    0.134E-01
RMM:   2    -0.999829624281E+02   -0.75562E-03   -0.94983E-03    73   0.466E-01    0.962E-02
RMM:   3    -0.999830660895E+02   -0.10366E-03   -0.25731E-03    77   0.184E-01    0.346E-02
RMM:   4    -0.999830882669E+02   -0.22177E-04   -0.25322E-04    75   0.702E-02    0.181E-02
RMM:   5    -0.999830951712E+02   -0.69043E-05   -0.62013E-05    61   0.330E-02    0.584E-03
RMM:   6    -0.999830981923E+02   -0.30211E-05   -0.90576E-06    48   0.135E-02
     53 T=   329. E= -.99573773E+02 F= -.99983098E+02 E0= -.99985031E+02  EK= 0.63799E+00 SP= -.28E+00 SK= 0.51E-01
       N       E                     dE             d eps       ncg     rms          rms(c)
RMM:   1    -0.100080416555E+03   -0.97321E-01   -0.99784E-02    72   0.176E+00    0.133E-01
RMM:   2    -0.100080800574E+03   -0.38402E-03   -0.60521E-03    75   0.378E-01    0.925E-02
RMM:   3    -0.100080828523E+03   -0.27949E-04   -0.16001E-03    73   0.155E-01    0.262E-02
RMM:   4    -0.100080850533E+03   -0.22010E-04   -0.24348E-04    70   0.622E-02    0.193E-02
RMM:   5    -0.100080857956E+03   -0.74233E-05   -0.72022E-05    62   0.331E-02    0.483E-03
RMM:   6    -0.100080859663E+03   -0.17069E-05   -0.17607E-05    50   0.161E-02
     54 T=   360. E= -.99579438E+02 F= -.10008086E+03 E0= -.10008279E+03  EK= 0.69862E+00 SP= -.23E+00 SK= 0.37E-01
       N       E                     dE             d eps       ncg     rms          rms(c)
RMM:   1    -0.100188683096E+03   -0.10783E+00   -0.59298E-02    72   0.141E+00    0.847E-02
RMM:   2    -0.100189116943E+03   -0.43385E-03   -0.47290E-03    74   0.314E-01    0.576E-02
RMM:   3    -0.100189250057E+03   -0.13311E-03   -0.12235E-03    77   0.128E-01    0.312E-02
RMM:   4    -0.100189265704E+03   -0.15646E-04   -0.16058E-04    69   0.547E-02    0.658E-03
RMM:   5    -0.100189271361E+03   -0.56567E-05   -0.46152E-05    57   0.271E-02    0.443E-03
RMM:   6    -0.100189271557E+03   -0.19694E-06   -0.52276E-06    47   0.106E-02
     55 T=   395. E= -.99589161E+02 F= -.10018927E+03 E0= -.10019120E+03  EK= 0.76642E+00 SP= -.19E+00 SK= 0.28E-01
       N       E                     dE             d eps       ncg     rms          rms(c)
RMM:   1    -0.100158916528E+03    0.30355E-01   -0.81486E-02    72   0.170E+00    0.994E-02
RMM:   2    -0.100159414731E+03   -0.49820E-03   -0.55081E-03    72   0.344E-01    0.690E-02
RMM:   3    -0.100159508419E+03   -0.93688E-04   -0.11591E-03    76   0.130E-01    0.414E-02
RMM:   4    -0.100159519464E+03   -0.11046E-04   -0.20355E-04    68   0.602E-02    0.837E-03
RMM:   5    -0.100159524601E+03   -0.51367E-05   -0.49219E-05    59   0.280E-02    0.631E-03
RMM:   6    -0.100159526044E+03   -0.14430E-05   -0.17306E-05    52   0.157E-02
     56 T=   366. E= -.99588203E+02 F= -.10015953E+03 E0= -.10016146E+03  EK= 0.70978E+00 SP= -.16E+00 SK= 0.22E-01
       N       E                     dE             d eps       ncg     rms          rms(c)
RMM:   1    -0.999929512907E+02    0.16657E+00   -0.98224E-02    72   0.182E+00    0.108E-01
RMM:   2    -0.999933586631E+02   -0.40737E-03   -0.56163E-03    72   0.407E-01    0.703E-02
RMM:   3    -0.999934545186E+02   -0.95855E-04   -0.12419E-03    74   0.155E-01    0.396E-02
RMM:   4    -0.999934608477E+02   -0.63291E-05   -0.17205E-04    72   0.634E-02    0.877E-03
RMM:   5    -0.999934658822E+02   -0.50345E-05   -0.49792E-05    59   0.313E-02    0.451E-03
RMM:   6    -0.999934664213E+02   -0.53907E-06   -0.93710E-06    47   0.138E-02
     57 T=   276. E= -.99577342E+02 F= -.99993466E+02 E0= -.99995399E+02  EK= 0.53574E+00 SP= -.13E+00 SK= 0.12E-01
       N       E                     dE             d eps       ncg     rms          rms(c)
RMM:   1    -0.998495306295E+02    0.14394E+00   -0.19858E-01    72   0.254E+00    0.160E-01
RMM:   2    -0.998505351160E+02   -0.10045E-02   -0.11240E-02    74   0.528E-01    0.113E-01
RMM:   3    -0.998505708676E+02   -0.35752E-04   -0.17351E-03    73   0.190E-01    0.533E-02
RMM:   4    -0.998506117276E+02   -0.40860E-04   -0.53813E-04    75   0.906E-02    0.194E-02
RMM:   5    -0.998506147658E+02   -0.30381E-05   -0.97424E-05    63   0.401E-02    0.113E-02
RMM:   6    -0.998506167488E+02   -0.19830E-05   -0.24666E-05    52   0.200E-02
     58 T=   202. E= -.99569741E+02 F= -.99850617E+02 E0= -.99852549E+02  EK= 0.39207E+00 SP= -.11E+00 SK= 0.28E-02
       N       E                     dE             d eps       ncg     rms          rms(c)
RMM:   1    -0.998475888250E+02    0.30259E-02   -0.69352E-02    72   0.153E+00    0.101E-01
RMM:   2    -0.998479530329E+02   -0.36421E-03   -0.44589E-03    74   0.318E-01    0.682E-02
RMM:   3    -0.998480060092E+02   -0.52976E-04   -0.85641E-04    74   0.123E-01    0.344E-02
RMM:   4    -0.998480222474E+02   -0.16238E-04   -0.17812E-04    71   0.545E-02    0.114E-02
RMM:   5    -0.998480282916E+02   -0.60441E-05   -0.39687E-05    54   0.250E-02    0.586E-03
RMM:   6    -0.998480320063E+02   -0.37147E-05   -0.10849E-05    49   0.128E-02
     59 T=   198. E= -.99574471E+02 F= -.99848032E+02 E0= -.99849965E+02  EK= 0.38311E+00 SP= -.11E+00 SK= 0.20E-03
       N       E                     dE             d eps       ncg     rms          rms(c)
RMM:   1    -0.999228153608E+02   -0.74787E-01   -0.46192E-02    72   0.121E+00    0.792E-02
RMM:   2    -0.999230863457E+02   -0.27098E-03   -0.34573E-03    74   0.258E-01    0.532E-02
RMM:   3    -0.999231496454E+02   -0.63300E-04   -0.82952E-04    75   0.105E-01    0.238E-02
RMM:   4    -0.999231624476E+02   -0.12802E-04   -0.12286E-04    64   0.432E-02    0.929E-03
RMM:   5    -0.999231677879E+02   -0.53403E-05   -0.33261E-05    56   0.214E-02    0.387E-03
RMM:   6    -0.999231697187E+02   -0.19308E-05   -0.50184E-06    47   0.964E-03
     60 T=   235. E= -.99581392E+02 F= -.99923170E+02 E0= -.99925102E+02  EK= 0.45564E+00 SP= -.12E+00 SK= 0.57E-02
       N       E                     dE             d eps       ncg     rms          rms(c)
RMM:   1    -0.999652937097E+02   -0.42126E-01   -0.97138E-02    72   0.163E+00    0.111E-01
RMM:   2    -0.999659645931E+02   -0.67088E-03   -0.83411E-03    75   0.373E-01    0.760E-02
RMM:   3    -0.999660527567E+02   -0.88164E-04   -0.18900E-03    75   0.149E-01    0.303E-02
RMM:   4    -0.999660833555E+02   -0.30599E-04   -0.31187E-04    74   0.602E-02    0.160E-02
RMM:   5    -0.999660871438E+02   -0.37884E-05   -0.40615E-05    59   0.267E-02    0.499E-03
RMM:   6    -0.999660889973E+02   -0.18534E-05   -0.99215E-06    48   0.134E-02
     61 T=   262. E= -.99583085E+02 F= -.99966089E+02 E0= -.99968022E+02  EK= 0.50840E+00 SP= -.14E+00 SK= 0.16E-01
       N       E                     dE             d eps       ncg     rms          rms(c)
RMM:   1    -0.999457382103E+02    0.20349E-01   -0.86973E-02    72   0.161E+00    0.921E-02
RMM:   2    -0.999461433388E+02   -0.40513E-03   -0.49519E-03    72   0.373E-01    0.626E-02
RMM:   3    -0.999461940353E+02   -0.50696E-04   -0.10842E-03    75   0.139E-01    0.284E-02
RMM:   4    -0.999462152788E+02   -0.21244E-04   -0.24247E-04    76   0.599E-02    0.125E-02
RMM:   5    -0.999462177491E+02   -0.24703E-05   -0.30531E-05    54   0.250E-02    0.585E-03
RMM:   6    -0.999462194405E+02   -0.16915E-05   -0.64598E-06    47   0.121E-02
     62 T=   263. E= -.99580520E+02 F= -.99946219E+02 E0= -.99948152E+02  EK= 0.50930E+00 SP= -.18E+00 SK= 0.31E-01
       N       E                     dE             d eps       ncg     rms          rms(c)
RMM:   1    -0.999113201049E+02    0.34898E-01   -0.94098E-02    72   0.164E+00    0.858E-02
RMM:   2    -0.999118365706E+02   -0.51647E-03   -0.57026E-03    73   0.404E-01    0.578E-02
RMM:   3    -0.999119322436E+02   -0.95673E-04   -0.12231E-03    77   0.145E-01    0.276E-02
RMM:   4    -0.999119500121E+02   -0.17768E-04   -0.23494E-04    73   0.583E-02    0.770E-03
RMM:   5    -0.999119530442E+02   -0.30322E-05   -0.29777E-05    56   0.253E-02    0.488E-03
RMM:   6    -0.999119547580E+02   -0.17137E-05   -0.80099E-06    48   0.122E-02
     63 T=   260. E= -.99574129E+02 F= -.99911955E+02 E0= -.99913887E+02  EK= 0.50494E+00 SP= -.22E+00 SK= 0.52E-01
       N       E                     dE             d eps       ncg     rms          rms(c)
RMM:   1    -0.999620159647E+02   -0.50063E-01   -0.12164E-01    72   0.185E+00    0.129E-01
RMM:   2    -0.999623917131E+02   -0.37575E-03   -0.60382E-03    72   0.408E-01    0.905E-02
RMM:   3    -0.999623793594E+02    0.12354E-04   -0.13402E-03    74   0.153E-01    0.259E-02
RMM:   4    -0.999624012701E+02   -0.21911E-04   -0.24843E-04    69   0.609E-02    0.199E-02
RMM:   5    -0.999624066306E+02   -0.53605E-05   -0.49939E-05    62   0.294E-02    0.551E-03
RMM:   6    -0.999624084231E+02   -0.17925E-05   -0.10630E-05    48   0.144E-02
     64 T=   304. E= -.99570397E+02 F= -.99962408E+02 E0= -.99964341E+02  EK= 0.58973E+00 SP= -.27E+00 SK= 0.77E-01
       N       E                     dE             d eps       ncg     rms          rms(c)
RMM:   1    -0.100133313423E+03   -0.17091E+00   -0.67549E-02    72   0.143E+00    0.972E-02
RMM:   2    -0.100133651054E+03   -0.33763E-03   -0.47232E-03    74   0.315E-01    0.690E-02
RMM:   3    -0.100133683356E+03   -0.32301E-04   -0.10300E-03    73   0.127E-01    0.281E-02
RMM:   4    -0.100133702661E+03   -0.19305E-04   -0.20053E-04    74   0.551E-02    0.173E-02
RMM:   5    -0.100133705326E+03   -0.26652E-05   -0.33530E-05    56   0.247E-02    0.511E-03
RMM:   6    -0.100133706085E+03   -0.75903E-06   -0.82445E-06    49   0.130E-02
     65 T=   412. E= -.99578847E+02 F= -.10013371E+03 E0= -.10013564E+03  EK= 0.79831E+00 SP= -.34E+00 SK= 0.96E-01
       N       E                     dE             d eps       ncg     rms          rms(c)
RMM:   1    -0.100295606136E+03   -0.16190E+00   -0.41061E-02    72   0.116E+00    0.778E-02
RMM:   2    -0.100295911938E+03   -0.30580E-03   -0.36008E-03    74   0.261E-01    0.480E-02
RMM:   3    -0.100295989530E+03   -0.77593E-04   -0.87811E-04    75   0.105E-01    0.257E-02
RMM:   4    -0.100295999867E+03   -0.10337E-04   -0.10279E-04    71   0.434E-02    0.975E-03
RMM:   5    -0.100296004138E+03   -0.42703E-05   -0.20363E-05    50   0.191E-02    0.400E-03
RMM:   6    -0.100296007195E+03   -0.30572E-05   -0.41533E-06    47   0.980E-03
     66 T=   524. E= -.99589996E+02 F= -.10029601E+03 E0= -.10029794E+03  EK= 0.10152E+01 SP= -.41E+00 SK= 0.98E-01
       N       E                     dE             d eps       ncg     rms          rms(c)
RMM:   1    -0.100302588831E+03   -0.65847E-02   -0.91320E-02    72   0.173E+00    0.126E-01
RMM:   2    -0.100303022896E+03   -0.43406E-03   -0.60403E-03    71   0.369E-01    0.779E-02
RMM:   3    -0.100303131141E+03   -0.10825E-03   -0.16515E-03    74   0.147E-01    0.336E-02
RMM:   4    -0.100303147431E+03   -0.16290E-04   -0.20351E-04    74   0.581E-02    0.145E-02
RMM:   5    -0.100303152373E+03   -0.49427E-05   -0.38315E-05    53   0.264E-02    0.715E-03
RMM:   6    -0.100303155249E+03   -0.28758E-05   -0.69496E-06    47   0.117E-02
     67 T=   566. E= -.99591700E+02 F= -.10030316E+03 E0= -.10030509E+03  EK= 0.10967E+01 SP= -.47E+00 SK= 0.89E-01
       N       E                     dE             d eps       ncg     rms          rms(c)
RMM:   1    -0.100159905160E+03    0.14325E+00   -0.13306E-01    72   0.202E+00    0.145E-01
RMM:   2    -0.100160384965E+03   -0.47981E-03   -0.73252E-03    72   0.469E-01    0.898E-02
RMM:   3    -0.100160485017E+03   -0.10005E-03   -0.17197E-03    74   0.174E-01    0.439E-02
RMM:   4    -0.100160487466E+03   -0.24492E-05   -0.18526E-04    72   0.682E-02    0.136E-02
RMM:   5    -0.100160494285E+03   -0.68192E-05   -0.65098E-05    60   0.349E-02    0.789E-03
RMM:   6    -0.100160496278E+03   -0.19932E-05   -0.10923E-05    48   0.144E-02
     68 T=   533. E= -.99583420E+02 F= -.10016050E+03 E0= -.10016243E+03  EK= 0.10344E+01 SP= -.54E+00 SK= 0.80E-01
       N       E                     dE             d eps       ncg     rms          rms(c)
RMM:   1    -0.100012635171E+03    0.14786E+00   -0.18735E-01    72   0.241E+00    0.177E-01
RMM:   2    -0.100013425087E+03   -0.78992E-03   -0.11967E-02    72   0.537E-01    0.117E-01
RMM:   3    -0.100013606499E+03   -0.18141E-03   -0.35879E-03    75   0.226E-01    0.406E-02
RMM:   4    -0.100013643958E+03   -0.37459E-04   -0.51657E-04    77   0.922E-02    0.254E-02
RMM:   5    -0.100013647460E+03   -0.35015E-05   -0.11262E-04    67   0.441E-02    0.693E-03
RMM:   6    -0.100013650730E+03   -0.32706E-05   -0.28139E-05    52   0.196E-02
     69 T=   495. E= -.99574997E+02 F= -.10001365E+03 E0= -.10001558E+03  EK= 0.95941E+00 SP= -.60E+00 SK= 0.78E-01
       N       E                     dE             d eps       ncg     rms          rms(c)
RMM:   1    -0.999795139105E+02    0.34134E-01   -0.94108E-02    72   0.175E+00    0.138E-01
RMM:   2    -0.999800997488E+02   -0.58584E-03   -0.81901E-03    77   0.399E-01    0.889E-02
RMM:   3    -0.999801853024E+02   -0.85554E-04   -0.15164E-03    74   0.163E-01    0.361E-02
RMM:   4    -0.999802207531E+02   -0.35451E-04   -0.29057E-04    75   0.699E-02    0.151E-02
RMM:   5    -0.999802335292E+02   -0.12776E-04   -0.58425E-05    61   0.321E-02    0.602E-03
RMM:   6    -0.999802414889E+02   -0.79597E-05   -0.74116E-06    47   0.130E-02
     70 T=   506. E= -.99580171E+02 F= -.99980241E+02 E0= -.99982174E+02  EK= 0.98189E+00 SP= -.66E+00 SK= 0.78E-01
       N       E                     dE             d eps       ncg     rms          rms(c)
RMM:   1    -0.999856380572E+02   -0.54045E-02   -0.74963E-02    72   0.159E+00    0.103E-01
RMM:   2    -0.999861925288E+02   -0.55447E-03   -0.67719E-03    74   0.358E-01    0.707E-02
RMM:   3    -0.999863064350E+02   -0.11391E-03   -0.16172E-03    77   0.147E-01    0.366E-02
RMM:   4    -0.999863318392E+02   -0.25404E-04   -0.21245E-04    75   0.616E-02    0.129E-02
RMM:   5    -0.999863426731E+02   -0.10834E-04   -0.39016E-05    57   0.267E-02    0.837E-03
RMM:   6    -0.999863525412E+02   -0.98681E-05   -0.72787E-06    48   0.120E-02
     71 T=   538. E= -.99588969E+02 F= -.99986353E+02 E0= -.99988285E+02  EK= 0.10436E+01 SP= -.72E+00 SK= 0.74E-01
       N       E                     dE             d eps       ncg     rms          rms(c)
RMM:   1    -0.999084170227E+02    0.77926E-01   -0.14655E-01    72   0.228E+00    0.142E-01
RMM:   2    -0.999090336404E+02   -0.61662E-03   -0.87205E-03    73   0.449E-01    0.983E-02
RMM:   3    -0.999090898443E+02   -0.56204E-04   -0.20357E-03    74   0.177E-01    0.369E-02
RMM:   4    -0.999091205827E+02   -0.30738E-04   -0.32040E-04    75   0.743E-02    0.198E-02
RMM:   5    -0.999091276290E+02   -0.70463E-05   -0.79975E-05    66   0.363E-02    0.574E-03
RMM:   6    -0.999091313169E+02   -0.36879E-05   -0.17264E-05    50   0.171E-02
     72 T=   531. E= -.99590653E+02 F= -.99909131E+02 E0= -.99911064E+02  EK= 0.10292E+01 SP= -.78E+00 SK= 0.68E-01
       N       E                     dE             d eps       ncg     rms          rms(c)
RMM:   1    -0.997322766816E+02    0.17685E+00   -0.15371E-01    72   0.223E+00    0.127E-01
RMM:   2    -0.997331420668E+02   -0.86539E-03   -0.10403E-02    73   0.494E-01    0.877E-02
RMM:   3    -0.997332877425E+02   -0.14568E-03   -0.25527E-03    77   0.193E-01    0.443E-02
RMM:   4    -0.997333074083E+02   -0.19666E-04   -0.35684E-04    72   0.798E-02    0.155E-02
RMM:   5    -0.997333165363E+02   -0.91280E-05   -0.84504E-05    65   0.383E-02    0.836E-03
RMM:   6    -0.997333214058E+02   -0.48696E-05   -0.14768E-05    49   0.173E-02
     73 T=   473. E= -.99586309E+02 F= -.99733321E+02 E0= -.99735254E+02  EK= 0.91626E+00 SP= -.84E+00 SK= 0.66E-01
       N       E                     dE             d eps       ncg     rms          rms(c)
RMM:   1    -0.995440943556E+02    0.18922E+00   -0.17898E-01    72   0.220E+00    0.125E-01
RMM:   2    -0.995454089066E+02   -0.13146E-02   -0.15083E-02    75   0.559E-01    0.821E-02
RMM:   3    -0.995457447358E+02   -0.33583E-03   -0.40596E-03    77   0.222E-01    0.436E-02
RMM:   4    -0.995457590721E+02   -0.14336E-04   -0.29352E-04    73   0.831E-02    0.144E-02
RMM:   5    -0.995457719649E+02   -0.12893E-04   -0.11186E-04    69   0.434E-02    0.905E-03
RMM:   6    -0.995457755415E+02   -0.35766E-05   -0.12955E-05    48   0.155E-02
     74 T=   407. E= -.99576468E+02 F= -.99545776E+02 E0= -.99547708E+02  EK= 0.78951E+00 SP= -.89E+00 SK= 0.72E-01
       N       E                     dE             d eps       ncg     rms          rms(c)
RMM:   1    -0.994959096031E+02    0.49862E-01   -0.24783E-01    72   0.272E+00    0.190E-01
RMM:   2    -0.994970167514E+02   -0.11071E-02   -0.16524E-02    74   0.585E-01    0.129E-01
RMM:   3    -0.994971781694E+02   -0.16142E-03   -0.44073E-03    74   0.248E-01    0.458E-02
RMM:   4    -0.994972623805E+02   -0.84211E-04   -0.94471E-04    79   0.108E-01    0.334E-02
RMM:   5    -0.994972675685E+02   -0.51881E-05   -0.16409E-04    68   0.517E-02    0.134E-02
RMM:   6    -0.994972683950E+02   -0.82648E-06   -0.24270E-05    56   0.241E-02
     75 T=   410. E= -.99571797E+02 F= -.99497268E+02 E0= -.99499201E+02  EK= 0.79449E+00 SP= -.95E+00 SK= 0.85E-01
       N       E                     dE             d eps       ncg     rms          rms(c)
RMM:   1    -0.996344170534E+02   -0.13715E+00   -0.10473E-01    72   0.180E+00    0.116E-01
RMM:   2    -0.996352696019E+02   -0.85255E-03   -0.10002E-02    75   0.414E-01    0.817E-02
RMM:   3    -0.996355169888E+02   -0.24739E-03   -0.31086E-03    80   0.181E-01    0.495E-02
RMM:   4    -0.996355323104E+02   -0.15322E-04   -0.21352E-04    72   0.665E-02    0.170E-02
RMM:   5    -0.996355460707E+02   -0.13760E-04   -0.67492E-05    61   0.336E-02    0.101E-02
RMM:   6    -0.996355523796E+02   -0.63089E-05   -0.18653E-05    52   0.175E-02
     76 T=   506. E= -.99582711E+02 F= -.99635552E+02 E0= -.99637485E+02  EK= 0.98067E+00 SP= -.10E+01 SK= 0.91E-01
       N       E                     dE             d eps       ncg     rms          rms(c)
RMM:   1    -0.997950220116E+02   -0.15948E+00   -0.85344E-02    72   0.162E+00    0.125E-01
RMM:   2    -0.997955978550E+02   -0.57584E-03   -0.71825E-03    75   0.374E-01    0.758E-02
RMM:   3    -0.997957544796E+02   -0.15662E-03   -0.18972E-03    76   0.155E-01    0.301E-02
RMM:   4    -0.997957772477E+02   -0.22768E-04   -0.26332E-04    72   0.628E-02    0.134E-02
RMM:   5    -0.997957816185E+02   -0.43708E-05   -0.46282E-05    59   0.287E-02    0.554E-03
RMM:   6    -0.997957836907E+02   -0.20722E-05   -0.80680E-06    47   0.128E-02
     77 T=   620. E= -.99594693E+02 F= -.99795784E+02 E0= -.99797716E+02  EK= 0.12031E+01 SP= -.11E+01 SK= 0.80E-01
       N       E                     dE             d eps       ncg     rms          rms(c)
RMM:   1    -0.998155423707E+02   -0.19761E-01   -0.17647E-01    72   0.239E+00    0.165E-01
RMM:   2    -0.998163097095E+02   -0.76734E-03   -0.10528E-02    74   0.512E-01    0.111E-01
RMM:   3    -0.998163643844E+02   -0.54675E-04   -0.19183E-03    72   0.194E-01    0.436E-02
RMM:   4    -0.998164026481E+02   -0.38264E-04   -0.46286E-04    76   0.868E-02    0.179E-02
RMM:   5    -0.998164053960E+02   -0.27480E-05   -0.82603E-05    64   0.391E-02    0.724E-03
RMM:   6    -0.998164061204E+02   -0.72436E-06   -0.13209E-05    48   0.163E-02
     78 T=   670. E= -.99596590E+02 F= -.99816406E+02 E0= -.99818339E+02  EK= 0.12996E+01 SP= -.11E+01 SK= 0.60E-01
       N       E                     dE             d eps       ncg     rms          rms(c)
RMM:   1    -0.996990025018E+02    0.11740E+00   -0.19427E-01    72   0.240E+00    0.139E-01
RMM:   2    -0.997000198626E+02   -0.10174E-02   -0.12411E-02    73   0.589E-01    0.958E-02
RMM:   3    -0.997002251861E+02   -0.20532E-03   -0.27536E-03    75   0.218E-01    0.518E-02
RMM:   4    -0.997002355186E+02   -0.10333E-04   -0.39367E-04    73   0.928E-02    0.147E-02
RMM:   5    -0.997002470588E+02   -0.11540E-04   -0.12103E-04    69   0.458E-02    0.666E-03
RMM:   6    -0.997002504913E+02   -0.34325E-05   -0.24115E-05    53   0.204E-02
     79 T=   650. E= -.99587724E+02 F= -.99700250E+02 E0= -.99702183E+02  EK= 0.12596E+01 SP= -.12E+01 SK= 0.43E-01
       N       E                     dE             d eps       ncg     rms          rms(c)
RMM:   1    -0.996018444392E+02    0.98403E-01   -0.27772E-01    72   0.293E+00    0.225E-01
RMM:   2    -0.996028432880E+02   -0.99885E-03   -0.16927E-02    73   0.682E-01    0.151E-01
RMM:   3    -0.996029115249E+02   -0.68237E-04   -0.43329E-03    74   0.275E-01    0.437E-02
RMM:   4    -0.996029434490E+02   -0.31924E-04   -0.66700E-04    74   0.114E-01    0.326E-02
RMM:   5    -0.996029576198E+02   -0.14171E-04   -0.28599E-04    71   0.660E-02    0.133E-02
RMM:   6    -0.996029558162E+02    0.18036E-05   -0.54169E-05    58   0.323E-02
     80 T=   632. E= -.99577991E+02 F= -.99602956E+02 E0= -.99604888E+02  EK= 0.12257E+01 SP= -.12E+01 SK= 0.31E-01
       N       E                     dE             d eps       ncg     rms          rms(c)
RMM:   1    -0.996512407554E+02   -0.48283E-01   -0.19583E-01    72   0.253E+00    0.190E-01
RMM:   2    -0.996524464436E+02   -0.12057E-02   -0.15126E-02    75   0.565E-01    0.127E-01
RMM:   3    -0.996527314585E+02   -0.28501E-03   -0.40412E-03    76   0.240E-01    0.366E-02
RMM:   4    -0.996527771183E+02   -0.45660E-04   -0.70815E-04    77   0.979E-02    0.240E-02
RMM:   5    -0.996527842567E+02   -0.71383E-05   -0.12696E-04    73   0.474E-02    0.808E-03
RMM:   6    -0.996527859800E+02   -0.17234E-05   -0.21929E-05    51   0.211E-02
     81 T=   676. E= -.99587507E+02 F= -.99652786E+02 E0= -.99654719E+02  EK= 0.13113E+01 SP= -.13E+01 SK= 0.20E-01
       N       E                     dE             d eps       ncg     rms          rms(c)
RMM:   1    -0.997194551623E+02   -0.66671E-01   -0.18877E-01    72   0.247E+00    0.142E-01
RMM:   2    -0.997211537151E+02   -0.16986E-02   -0.17832E-02    75   0.535E-01    0.102E-01
RMM:   3    -0.997214143009E+02   -0.26059E-03   -0.32153E-03    77   0.208E-01    0.506E-02
RMM:   4    -0.997214833210E+02   -0.69020E-04   -0.59456E-04    76   0.908E-02    0.174E-02
RMM:   5    -0.997214909057E+02   -0.75847E-05   -0.90220E-05    64   0.384E-02    0.947E-03
RMM:   6    -0.997214977544E+02   -0.68487E-05   -0.15344E-05    51   0.179E-02
     82 T=   725. E= -.99598935E+02 F= -.99721498E+02 E0= -.99723430E+02  EK= 0.14053E+01 SP= -.13E+01 SK= 0.85E-02
       N       E                     dE             d eps       ncg     rms          rms(c)
RMM:   1    -0.996458657941E+02    0.75625E-01   -0.26493E-01    72   0.301E+00    0.170E-01
RMM:   2    -0.996471232917E+02   -0.12575E-02   -0.14792E-02    73   0.590E-01    0.125E-01
RMM:   3    -0.996472018942E+02   -0.78602E-04   -0.27979E-03    74   0.220E-01    0.542E-02
RMM:   4    -0.996472653657E+02   -0.63471E-04   -0.67606E-04    76   0.993E-02    0.230E-02
RMM:   5    -0.996472741406E+02   -0.87749E-05   -0.17003E-04    69   0.466E-02    0.113E-02
RMM:   6    -0.996472779587E+02   -0.38181E-05   -0.24983E-05    51   0.205E-02
     83 T=   698. E= -.99597965E+02 F= -.99647278E+02 E0= -.99649211E+02  EK= 0.13533E+01 SP= -.13E+01 SK= 0.16E-02
       N       E                     dE             d eps       ncg     rms          rms(c)
RMM:   1    -0.994374653627E+02    0.20981E+00   -0.23074E-01    72   0.274E+00    0.153E-01
RMM:   2    -0.994385618337E+02   -0.10965E-02   -0.12954E-02    73   0.581E-01    0.102E-01
RMM:   3    -0.994387144628E+02   -0.15263E-03   -0.23659E-03    76   0.211E-01    0.492E-02
RMM:   4    -0.994387477093E+02   -0.33247E-04   -0.42561E-04    71   0.897E-02    0.124E-02
RMM:   5    -0.994387629330E+02   -0.15224E-04   -0.15900E-04    67   0.447E-02    0.101E-02
RMM:   6    -0.994387653674E+02   -0.24344E-05   -0.14946E-05    49   0.163E-02
     84 T=   598. E= -.99589893E+02 F= -.99438765E+02 E0= -.99440698E+02  EK= 0.11590E+01 SP= -.13E+01 SK= 0.67E-05
       N       E                     dE             d eps       ncg     rms          rms(c)
RMM:   1    -0.992218953318E+02    0.21687E+00   -0.24144E-01    72   0.273E+00    0.159E-01
RMM:   2    -0.992229576137E+02   -0.10623E-02   -0.13189E-02    73   0.605E-01    0.107E-01
RMM:   3    -0.992231823357E+02   -0.22472E-03   -0.31410E-03    76   0.228E-01    0.356E-02
RMM:   4    -0.992232287568E+02   -0.46421E-04   -0.56025E-04    76   0.906E-02    0.200E-02
RMM:   5    -0.992232345680E+02   -0.58112E-05   -0.10738E-04    65   0.430E-02    0.629E-03
RMM:   6    -0.992232386217E+02   -0.40537E-05   -0.27427E-05    51   0.200E-02
     85 T=   492. E= -.99578495E+02 F= -.99223239E+02 E0= -.99225171E+02  EK= 0.95426E+00 SP= -.13E+01 SK= 0.65E-04
       N       E                     dE             d eps       ncg     rms          rms(c)
RMM:   1    -0.991657204945E+02    0.57514E-01   -0.29525E-01    72   0.294E+00    0.208E-01
RMM:   2    -0.991669591411E+02   -0.12386E-02   -0.17170E-02    74   0.623E-01    0.146E-01
RMM:   3    -0.991670542909E+02   -0.95150E-04   -0.37337E-03    73   0.245E-01    0.395E-02
RMM:   4    -0.991671092272E+02   -0.54936E-04   -0.67594E-04    75   0.100E-01    0.296E-02
RMM:   5    -0.991671322948E+02   -0.23068E-04   -0.23854E-04    69   0.581E-02    0.127E-02
RMM:   6    -0.991671299776E+02    0.23172E-05   -0.49678E-05    54   0.281E-02
     86 T=   463. E= -.99577541E+02 F= -.99167130E+02 E0= -.99169063E+02  EK= 0.89813E+00 SP= -.13E+01 SK= 0.18E-05
       N       E                     dE             d eps       ncg     rms          rms(c)
RMM:   1    -0.992805867666E+02   -0.11345E+00   -0.15608E-01    72   0.224E+00    0.151E-01
RMM:   2    -0.992817646661E+02   -0.11779E-02   -0.13040E-02    76   0.509E-01    0.104E-01
RMM:   3    -0.992819998081E+02   -0.23514E-03   -0.25903E-03    73   0.201E-01    0.337E-02
RMM:   4    -0.992820750025E+02   -0.75194E-04   -0.69364E-04    77   0.915E-02    0.140E-02
RMM:   5    -0.992820829014E+02   -0.78989E-05   -0.91338E-05    65   0.406E-02    0.611E-03
RMM:   6    -0.992820859894E+02   -0.30879E-05   -0.19753E-05    50   0.190E-02
     87 T=   516. E= -.99589948E+02 F= -.99282086E+02 E0= -.99284019E+02  EK= 0.10006E+01 SP= -.13E+01 SK= 0.16E-06
       N       E                     dE             d eps       ncg     rms          rms(c)
RMM:   1    -0.993952678487E+02   -0.11318E+00   -0.16290E-01    72   0.224E+00    0.164E-01
RMM:   2    -0.993962412388E+02   -0.97339E-03   -0.12190E-02    75   0.506E-01    0.110E-01
RMM:   3    -0.993964236429E+02   -0.18240E-03   -0.27522E-03    74   0.205E-01    0.389E-02
RMM:   4    -0.993964762129E+02   -0.52570E-04   -0.56919E-04    76   0.878E-02    0.199E-02
RMM:   5    -0.993964828921E+02   -0.66793E-05   -0.77561E-05    66   0.397E-02    0.577E-03
RMM:   6    -0.993964857131E+02   -0.28210E-05   -0.18522E-05    50   0.191E-02
     88 T=   571. E= -.99596357E+02 F= -.99396486E+02 E0= -.99398418E+02  EK= 0.11070E+01 SP= -.13E+01 SK= 0.18E-03
       N       E                     dE             d eps       ncg     rms          rms(c)
RMM:   1    -0.994052883952E+02   -0.88055E-02   -0.21307E-01    72   0.249E+00    0.186E-01
RMM:   2    -0.994062193689E+02   -0.93097E-03   -0.13452E-02    74   0.556E-01    0.124E-01
RMM:   3    -0.994063522763E+02   -0.13291E-03   -0.33455E-03    74   0.224E-01    0.388E-02
RMM:   4    -0.994063996715E+02   -0.47395E-04   -0.61907E-04    76   0.926E-02    0.246E-02
RMM:   5    -0.994064056157E+02   -0.59442E-05   -0.90428E-05    67   0.427E-02    0.670E-03
RMM:   6    -0.994064082036E+02   -0.25879E-05   -0.20431E-05    51   0.198E-02
     89 T=   573. E= -.99595623E+02 F= -.99406408E+02 E0= -.99408341E+02  EK= 0.11115E+01 SP= -.13E+01 SK= 0.12E-02
       N       E                     dE             d eps       ncg     rms          rms(c)
RMM:   1    -0.993260350321E+02    0.80371E-01   -0.18017E-01    72   0.231E+00    0.128E-01
RMM:   2    -0.993272423878E+02   -0.12074E-02   -0.12693E-02    73   0.557E-01    0.838E-02
RMM:   3    -0.993275188712E+02   -0.27648E-03   -0.28688E-03    76   0.211E-01    0.374E-02
RMM:   4    -0.993275738058E+02   -0.54935E-04   -0.58566E-04    77   0.899E-02    0.121E-02
RMM:   5    -0.993275807271E+02   -0.69213E-05   -0.67538E-05    62   0.371E-02    0.716E-03
RMM:   6    -0.993275835447E+02   -0.28176E-05   -0.12901E-05    49   0.171E-02
     90 T=   531. E= -.99588580E+02 F= -.99327584E+02 E0= -.99329516E+02  EK= 0.10293E+01 SP= -.13E+01 SK= 0.24E-02
       N       E                     dE             d eps       ncg     rms          rms(c)
RMM:   1    -0.992804248566E+02    0.47156E-01   -0.30454E-01    72   0.302E+00    0.216E-01
RMM:   2    -0.992817938406E+02   -0.13690E-02   -0.19650E-02    74   0.690E-01    0.145E-01
RMM:   3    -0.992818985964E+02   -0.10476E-03   -0.43299E-03    74   0.271E-01    0.442E-02
RMM:   4    -0.992819856013E+02   -0.87005E-04   -0.93534E-04    81   0.117E-01    0.303E-02
RMM:   5    -0.992819904950E+02   -0.48937E-05   -0.15125E-04    71   0.535E-02    0.857E-03
RMM:   6    -0.992819926017E+02   -0.21067E-05   -0.26147E-05    53   0.247E-02
     91 T=   507. E= -.99578348E+02 F= -.99281993E+02 E0= -.99283925E+02  EK= 0.98230E+00 SP= -.13E+01 SK= 0.29E-02
       N       E                     dE             d eps       ncg     rms          rms(c)
RMM:   1    -0.994015735460E+02   -0.11958E+00   -0.22735E-01    72   0.262E+00    0.199E-01
RMM:   2    -0.994027141352E+02   -0.11406E-02   -0.16376E-02    74   0.586E-01    0.129E-01
RMM:   3    -0.994029599664E+02   -0.24583E-03   -0.41727E-03    75   0.243E-01    0.421E-02
RMM:   4    -0.994030066038E+02   -0.46637E-04   -0.61081E-04    76   0.103E-01    0.235E-02
RMM:   5    -0.994030260352E+02   -0.19431E-04   -0.20643E-04    70   0.515E-02    0.638E-03
RMM:   6    -0.994030306050E+02   -0.45698E-05   -0.27396E-05    52   0.203E-02
     92 T=   558. E= -.99587503E+02 F= -.99403031E+02 E0= -.99404963E+02  EK= 0.10810E+01 SP= -.13E+01 SK= 0.36E-02
       N       E                     dE             d eps       ncg     rms          rms(c)
RMM:   1    -0.995637038883E+02   -0.16068E+00   -0.12990E-01    72   0.206E+00    0.112E-01
RMM:   2    -0.995646867197E+02   -0.98283E-03   -0.10605E-02    75   0.465E-01    0.795E-02
RMM:   3    -0.995648880067E+02   -0.20129E-03   -0.23691E-03    76   0.180E-01    0.468E-02
RMM:   4    -0.995649140897E+02   -0.26083E-04   -0.38811E-04    75   0.823E-02    0.137E-02
RMM:   5    -0.995649248478E+02   -0.10758E-04   -0.94779E-05    65   0.387E-02    0.123E-02
RMM:   6    -0.995649275967E+02   -0.27489E-05   -0.19878E-05    51   0.170E-02
     93 T=   624. E= -.99600829E+02 F= -.99564928E+02 E0= -.99566860E+02  EK= 0.12101E+01 SP= -.13E+01 SK= 0.72E-02
       N       E                     dE             d eps       ncg     rms          rms(c)
RMM:   1    -0.995647766862E+02    0.14816E-03   -0.19992E-01    72   0.259E+00    0.155E-01
RMM:   2    -0.995656401637E+02   -0.86348E-03   -0.11018E-02    73   0.530E-01    0.112E-01
RMM:   3    -0.995656529019E+02   -0.12738E-04   -0.19124E-03    73   0.196E-01    0.483E-02
RMM:   4    -0.995657010886E+02   -0.48187E-04   -0.47141E-04    77   0.876E-02    0.238E-02
RMM:   5    -0.995657075061E+02   -0.64176E-05   -0.94413E-05    63   0.410E-02    0.896E-03
RMM:   6    -0.995657102340E+02   -0.27279E-05   -0.20138E-05    50   0.200E-02
     94 T=   610. E= -.99600101E+02 F= -.99565710E+02 E0= -.99567643E+02  EK= 0.11830E+01 SP= -.12E+01 SK= 0.14E-01
       N       E                     dE             d eps       ncg     rms          rms(c)
RMM:   1    -0.993910461591E+02    0.17466E+00   -0.17239E-01    72   0.238E+00    0.130E-01
RMM:   2    -0.993917827255E+02   -0.73657E-03   -0.91893E-03    73   0.529E-01    0.896E-02
RMM:   3    -0.993918356351E+02   -0.52910E-04   -0.15019E-03    73   0.190E-01    0.433E-02
RMM:   4    -0.993918699944E+02   -0.34359E-04   -0.38855E-04    76   0.826E-02    0.178E-02
RMM:   5    -0.993918745982E+02   -0.46038E-05   -0.49690E-05    60   0.347E-02    0.800E-03
RMM:   6    -0.993918793072E+02   -0.47090E-05   -0.15470E-05    50   0.180E-02
     95 T=   509. E= -.99590102E+02 F= -.99391879E+02 E0= -.99393812E+02  EK= 0.98702E+00 SP= -.12E+01 SK= 0.18E-01
       N       E                     dE             d eps       ncg     rms          rms(c)
RMM:   1    -0.991887387571E+02    0.20314E+00   -0.20972E-01    72   0.255E+00    0.139E-01
RMM:   2    -0.991895692186E+02   -0.83046E-03   -0.10291E-02    72   0.596E-01    0.971E-02
RMM:   3    -0.991896722791E+02   -0.10306E-03   -0.19638E-03    74   0.214E-01    0.337E-02
RMM:   4    -0.991897119953E+02   -0.39716E-04   -0.42640E-04    76   0.900E-02    0.166E-02
RMM:   5    -0.991897169452E+02   -0.49499E-05   -0.83922E-05    65   0.419E-02    0.664E-03
RMM:   6    -0.991897181838E+02   -0.12387E-05   -0.15294E-05    50   0.183E-02
     96 T=   398. E= -.99577981E+02 F= -.99189718E+02 E0= -.99191651E+02  EK= 0.77092E+00 SP= -.12E+01 SK= 0.16E-01
       N       E                     dE             d eps       ncg     rms          rms(c)
RMM:   1    -0.991386828919E+02    0.51034E-01   -0.22326E-01    72   0.268E+00    0.185E-01
RMM:   2    -0.991394193638E+02   -0.73647E-03   -0.11588E-02    72   0.557E-01    0.127E-01
RMM:   3    -0.991394593735E+02   -0.40010E-04   -0.27318E-03    74   0.219E-01    0.368E-02
RMM:   4    -0.991395078064E+02   -0.48433E-04   -0.54119E-04    76   0.920E-02    0.269E-02
RMM:   5    -0.991395171702E+02   -0.93637E-05   -0.11353E-04    66   0.451E-02    0.774E-03
RMM:   6    -0.991395184424E+02   -0.12722E-05   -0.22467E-05    52   0.213E-02
     97 T=   361. E= -.99579610E+02 F= -.99139518E+02 E0= -.99141451E+02  EK= 0.70090E+00 SP= -.12E+01 SK= 0.96E-02
       N       E                     dE             d eps       ncg     rms          rms(c)
RMM:   1    -0.992274044707E+02   -0.87887E-01   -0.74708E-02    72   0.155E+00    0.921E-02
RMM:   2    -0.992279448837E+02   -0.54041E-03   -0.63008E-03    76   0.362E-01    0.627E-02
RMM:   3    -0.992280324880E+02   -0.87604E-04   -0.11035E-03    75   0.141E-01    0.298E-02
RMM:   4    -0.992280647272E+02   -0.32239E-04   -0.31209E-04    75   0.644E-02    0.107E-02
RMM:   5    -0.992280705898E+02   -0.58625E-05   -0.34140E-05    55   0.250E-02    0.537E-03
RMM:   6    -0.992280734389E+02   -0.28491E-05   -0.56470E-06    48   0.114E-02
     98 T=   394. E= -.99591348E+02 F= -.99228073E+02 E0= -.99230006E+02  EK= 0.76348E+00 SP= -.11E+01 SK= 0.52E-02
       N       E                     dE             d eps       ncg     rms          rms(c)
RMM:   1    -0.992880098363E+02   -0.59939E-01   -0.13277E-01    72   0.205E+00    0.151E-01
RMM:   2    -0.992886761784E+02   -0.66634E-03   -0.10506E-02    75   0.464E-01    0.986E-02
RMM:   3    -0.992887630574E+02   -0.86879E-04   -0.20966E-03    75   0.190E-01    0.376E-02
RMM:   4    -0.992887995503E+02   -0.36493E-04   -0.47025E-04    78   0.827E-02    0.228E-02
RMM:   5    -0.992888053447E+02   -0.57943E-05   -0.80584E-05    65   0.362E-02    0.695E-03
RMM:   6    -0.992888067906E+02   -0.14460E-05   -0.11380E-05    50   0.146E-02
     99 T=   417. E= -.99594785E+02 F= -.99288807E+02 E0= -.99290739E+02  EK= 0.80893E+00 SP= -.11E+01 SK= 0.31E-02
       N       E                     dE             d eps       ncg     rms          rms(c)
RMM:   1    -0.992513888466E+02    0.37416E-01   -0.19388E-01    72   0.242E+00    0.158E-01
RMM:   2    -0.992524573021E+02   -0.10685E-02   -0.14447E-02    73   0.561E-01    0.107E-01
RMM:   3    -0.992526949157E+02   -0.23761E-03   -0.41041E-03    76   0.233E-01    0.454E-02
RMM:   4    -0.992527429336E+02   -0.48018E-04   -0.56512E-04    79   0.957E-02    0.268E-02
RMM:   5    -0.992527480327E+02   -0.50991E-05   -0.10039E-04    68   0.419E-02    0.744E-03
RMM:   6    -0.992527512422E+02   -0.32095E-05   -0.17826E-05    50   0.168E-02
    100 T=   395. E= -.99592169E+02 F= -.99252751E+02 E0= -.99254684E+02  EK= 0.76669E+00 SP= -.11E+01 SK= 0.15E-02
       N       E                     dE             d eps       ncg     rms          rms(c)
RMM:   1    -0.991619354840E+02    0.90813E-01   -0.15134E-01    72   0.208E+00    0.108E-01
RMM:   2    -0.991631747893E+02   -0.12393E-02   -0.13609E-02    73   0.547E-01    0.643E-02
RMM:   3    -0.991635049358E+02   -0.33015E-03   -0.33274E-03    78   0.222E-01    0.448E-02
RMM:   4    -0.991635566385E+02   -0.51703E-04   -0.70113E-04    74   0.989E-02    0.189E-02
RMM:   5    -0.991635711148E+02   -0.14476E-04   -0.13301E-04    69   0.478E-02    0.973E-03
RMM:   6    -0.991635725278E+02   -0.14130E-05   -0.18894E-05    50   0.185E-02
    101 T=   352. E= -.99583587E+02 F= -.99163573E+02 E0= -.99165505E+02  EK= 0.68166E+00 SP= -.11E+01 SK= 0.19E-03
       N       E                     dE             d eps       ncg     rms          rms(c)
RMM:   1    -0.991581141869E+02    0.54569E-02   -0.25315E-01    72   0.279E+00    0.197E-01
RMM:   2    -0.991590170126E+02   -0.90283E-03   -0.14550E-02    72   0.646E-01    0.127E-01
RMM:   3    -0.991592917636E+02   -0.27475E-03   -0.48378E-03    78   0.274E-01    0.407E-02
RMM:   4    -0.991593459337E+02   -0.54170E-04   -0.84286E-04    75   0.113E-01    0.271E-02
RMM:   5    -0.991593539188E+02   -0.79851E-05   -0.15963E-04    70   0.563E-02    0.669E-03
RMM:   6    -0.991593593760E+02   -0.54572E-05   -0.37542E-05    57   0.255E-02
    102 T=   354. E= -.99575138E+02 F= -.99159359E+02 E0= -.99161292E+02  EK= 0.68635E+00 SP= -.11E+01 SK= 0.39E-03
[...]
RMM:   4    -0.998844879497E+02   -0.29062E-04   -0.28034E-04    73   0.716E-02    0.143E-02
RMM:   5    -0.998844961257E+02   -0.81760E-05   -0.79777E-05    62   0.343E-02    0.863E-03
RMM:   6    -0.998844980707E+02   -0.19449E-05   -0.87568E-06    48   0.131E-02
    274 T=   495. E= -.99589775E+02 F= -.99884498E+02 E0= -.99886431E+02  EK= 0.95996E+00 SP= -.67E+00 SK= 0.46E-03
       N       E                     dE             d eps       ncg     rms          rms(c)
RMM:   1    -0.999127468103E+02   -0.28251E-01   -0.82286E-02    72   0.163E+00    0.102E-01
RMM:   2    -0.999132930825E+02   -0.54627E-03   -0.59782E-03    73   0.373E-01    0.673E-02
RMM:   3    -0.999134566608E+02   -0.16358E-03   -0.17502E-03    78   0.147E-01    0.262E-02
RMM:   4    -0.999134729553E+02   -0.16294E-04   -0.16829E-04    74   0.565E-02    0.979E-03
RMM:   5    -0.999134772127E+02   -0.42574E-05   -0.38699E-05    56   0.246E-02    0.405E-03
RMM:   6    -0.999134785689E+02   -0.13562E-05   -0.48105E-06    47   0.101E-02
    275 T=   509. E= -.99595359E+02 F= -.99913479E+02 E0= -.99915411E+02  EK= 0.98778E+00 SP= -.67E+00 SK= 0.31E-03
       N       E                     dE             d eps       ncg     rms          rms(c)
RMM:   1    -0.998474467238E+02    0.66030E-01   -0.11105E-01    72   0.190E+00    0.115E-01
RMM:   2    -0.998479774726E+02   -0.53075E-03   -0.62474E-03    72   0.449E-01    0.736E-02
RMM:   3    -0.998480625890E+02   -0.85116E-04   -0.12494E-03    74   0.163E-01    0.361E-02
RMM:   4    -0.998480821335E+02   -0.19544E-04   -0.29130E-04    75   0.721E-02    0.113E-02
RMM:   5    -0.998480863949E+02   -0.42615E-05   -0.50381E-05    62   0.319E-02    0.677E-03
RMM:   6    -0.998480886796E+02   -0.22847E-05   -0.87905E-06    47   0.138E-02
    276 T=   480. E= -.99591008E+02 F= -.99848089E+02 E0= -.99850021E+02  EK= 0.93039E+00 SP= -.67E+00 SK= 0.23E-03
       N       E                     dE             d eps       ncg     rms          rms(c)
RMM:   1    -0.997501174304E+02    0.97969E-01   -0.13474E-01    72   0.199E+00    0.126E-01
RMM:   2    -0.997507892109E+02   -0.67178E-03   -0.81266E-03    72   0.497E-01    0.835E-02
RMM:   3    -0.997509102066E+02   -0.12100E-03   -0.17177E-03    74   0.182E-01    0.371E-02
RMM:   4    -0.997509307493E+02   -0.20543E-04   -0.32676E-04    72   0.794E-02    0.114E-02
RMM:   5    -0.997509398228E+02   -0.90735E-05   -0.98433E-05    65   0.389E-02    0.700E-03
RMM:   6    -0.997509424047E+02   -0.25820E-05   -0.10376E-05    48   0.154E-02
    277 T=   436. E= -.99582740E+02 F= -.99750942E+02 E0= -.99752875E+02  EK= 0.84539E+00 SP= -.68E+00 SK= 0.54E-03
       N       E                     dE             d eps       ncg     rms          rms(c)
RMM:   1    -0.997419454147E+02    0.89944E-02   -0.11766E-01    72   0.194E+00    0.127E-01
RMM:   2    -0.997425950808E+02   -0.64967E-03   -0.79802E-03    74   0.451E-01    0.872E-02
RMM:   3    -0.997427424337E+02   -0.14735E-03   -0.20689E-03    76   0.176E-01    0.364E-02
RMM:   4    -0.997427487960E+02   -0.63623E-05   -0.18523E-04    72   0.673E-02    0.115E-02
RMM:   5    -0.997427548451E+02   -0.60491E-05   -0.64937E-05    63   0.353E-02    0.509E-03
RMM:   6    -0.997427584655E+02   -0.36205E-05   -0.12962E-05    49   0.154E-02
    278 T=   436. E= -.99581073E+02 F= -.99742758E+02 E0= -.99744691E+02  EK= 0.84467E+00 SP= -.68E+00 SK= 0.15E-02
       N       E                     dE             d eps       ncg     rms          rms(c)
RMM:   1    -0.998488096960E+02   -0.10605E+00   -0.73088E-02    72   0.147E+00    0.103E-01
RMM:   2    -0.998493087546E+02   -0.49906E-03   -0.62974E-03    75   0.363E-01    0.686E-02
RMM:   3    -0.998493891606E+02   -0.80406E-04   -0.12561E-03    72   0.143E-01    0.257E-02
RMM:   4    -0.998494144027E+02   -0.25242E-04   -0.24312E-04    78   0.657E-02    0.120E-02
RMM:   5    -0.998494234928E+02   -0.90900E-05   -0.64873E-05    58   0.294E-02    0.552E-03
RMM:   6    -0.998494266702E+02   -0.31774E-05   -0.55387E-06    47   0.116E-02
    279 T=   492. E= -.99586736E+02 F= -.99849427E+02 E0= -.99851359E+02  EK= 0.95422E+00 SP= -.69E+00 SK= 0.21E-02
       N       E                     dE             d eps       ncg     rms          rms(c)
RMM:   1    -0.999875638143E+02   -0.13814E+00   -0.11915E-01    72   0.193E+00    0.130E-01
RMM:   2    -0.999882664984E+02   -0.70268E-03   -0.89555E-03    75   0.424E-01    0.944E-02
RMM:   3    -0.999882834143E+02   -0.16916E-04   -0.16033E-03    73   0.165E-01    0.368E-02
RMM:   4    -0.999883290785E+02   -0.45664E-04   -0.46616E-04    79   0.764E-02    0.204E-02
RMM:   5    -0.999883290794E+02   -0.92405E-09   -0.62403E-05    61   0.319E-02    0.978E-03
RMM:   6    -0.999883316802E+02   -0.26009E-05   -0.11438E-05    47   0.157E-02
    280 T=   566. E= -.99592525E+02 F= -.99988332E+02 E0= -.99990264E+02  EK= 0.10972E+01 SP= -.70E+00 SK= 0.14E-02
       N       E                     dE             d eps       ncg     rms          rms(c)
RMM:   1    -0.100065553968E+03   -0.77225E-01   -0.15465E-01    72   0.231E+00    0.133E-01
RMM:   2    -0.100066374564E+03   -0.82060E-03   -0.10194E-02    72   0.471E-01    0.982E-02
RMM:   3    -0.100066476045E+03   -0.10148E-03   -0.23396E-03    76   0.185E-01    0.559E-02
RMM:   4    -0.100066474823E+03    0.12225E-05   -0.40944E-04    72   0.808E-02    0.193E-02
RMM:   5    -0.100066485618E+03   -0.10795E-04   -0.11108E-04    68   0.407E-02    0.127E-02
RMM:   6    -0.100066485260E+03    0.35755E-06   -0.47235E-05    56   0.238E-02
    281 T=   608. E= -.99596658E+02 F= -.10006649E+03 E0= -.10006842E+03  EK= 0.11781E+01 SP= -.71E+00 SK= 0.21E-03
       N       E                     dE             d eps       ncg     rms          rms(c)
RMM:   1    -0.100023768471E+03    0.42717E-01   -0.14093E-01    72   0.226E+00    0.109E-01
RMM:   2    -0.100024502459E+03   -0.73399E-03   -0.83920E-03    73   0.469E-01    0.780E-02
RMM:   3    -0.100024654877E+03   -0.15242E-03   -0.18897E-03    76   0.179E-01    0.512E-02
RMM:   4    -0.100024664143E+03   -0.92664E-05   -0.30188E-04    72   0.773E-02    0.142E-02
RMM:   5    -0.100024678534E+03   -0.14390E-04   -0.11026E-04    70   0.418E-02    0.112E-02
RMM:   6    -0.100024677545E+03    0.98865E-06   -0.12789E-05    49   0.163E-02
    282 T=   587. E= -.99595972E+02 F= -.10002468E+03 E0= -.10002661E+03  EK= 0.11374E+01 SP= -.71E+00 SK= 0.13E-03
       N       E                     dE             d eps       ncg     rms          rms(c)
RMM:   1    -0.998856927531E+02    0.13899E+00   -0.16026E-01    72   0.226E+00    0.130E-01
RMM:   2    -0.998862898341E+02   -0.59708E-03   -0.78506E-03    72   0.526E-01    0.873E-02
RMM:   3    -0.998863645325E+02   -0.74698E-04   -0.15992E-03    74   0.194E-01    0.286E-02
RMM:   4    -0.998863926395E+02   -0.28107E-04   -0.31281E-04    75   0.776E-02    0.159E-02
RMM:   5    -0.998863998660E+02   -0.72265E-05   -0.69840E-05    64   0.378E-02    0.588E-03
RMM:   6    -0.998864021528E+02   -0.22868E-05   -0.10590E-05    48   0.152E-02
    283 T=   518. E= -.99586900E+02 F= -.99886402E+02 E0= -.99888335E+02  EK= 0.10036E+01 SP= -.70E+00 SK= 0.66E-03
       N       E                     dE             d eps       ncg     rms          rms(c)
RMM:   1    -0.997816219931E+02    0.10478E+00   -0.26787E-01    72   0.292E+00    0.178E-01
RMM:   2    -0.997829037481E+02   -0.12818E-02   -0.16449E-02    74   0.643E-01    0.129E-01
RMM:   3    -0.997829050846E+02   -0.13365E-05   -0.29929E-03    73   0.238E-01    0.510E-02
RMM:   4    -0.997829571649E+02   -0.52080E-04   -0.66805E-04    78   0.108E-01    0.249E-02
RMM:   5    -0.997829658927E+02   -0.87279E-05   -0.14265E-04    68   0.459E-02    0.133E-02
RMM:   6    -0.997829678188E+02   -0.19261E-05   -0.22554E-05    52   0.215E-02
    284 T=   464. E= -.99582323E+02 F= -.99782968E+02 E0= -.99784900E+02  EK= 0.89951E+00 SP= -.70E+00 SK= 0.55E-03
       N       E                     dE             d eps       ncg     rms          rms(c)
RMM:   1    -0.997750189159E+02    0.79470E-02   -0.12082E-01    72   0.209E+00    0.102E-01
RMM:   2    -0.997759675418E+02   -0.94863E-03   -0.95667E-03    74   0.464E-01    0.746E-02
RMM:   3    -0.997761752742E+02   -0.20773E-03   -0.22650E-03    75   0.182E-01    0.442E-02
RMM:   4    -0.997762061769E+02   -0.30903E-04   -0.40292E-04    73   0.861E-02    0.122E-02
RMM:   5    -0.997762176482E+02   -0.11471E-04   -0.10537E-04    69   0.391E-02    0.106E-02
RMM:   6    -0.997762232481E+02   -0.55999E-05   -0.15238E-05    49   0.176E-02
    285 T=   454. E= -.99590869E+02 F= -.99776223E+02 E0= -.99778156E+02  EK= 0.88029E+00 SP= -.70E+00 SK= 0.23E-03
       N       E                     dE             d eps       ncg     rms          rms(c)
RMM:   1    -0.997507160869E+02    0.25502E-01   -0.79634E-02    72   0.168E+00    0.986E-02
RMM:   2    -0.997513149452E+02   -0.59886E-03   -0.65544E-03    74   0.385E-01    0.643E-02
RMM:   3    -0.997514899987E+02   -0.17505E-03   -0.17520E-03    75   0.156E-01    0.269E-02
RMM:   4    -0.997515121955E+02   -0.22197E-04   -0.24633E-04    75   0.656E-02    0.105E-02
RMM:   5    -0.997515181672E+02   -0.59716E-05   -0.59391E-05    61   0.309E-02    0.403E-03
RMM:   6    -0.997515203955E+02   -0.22283E-05   -0.77371E-06    47   0.133E-02
    286 T=   437. E= -.99596917E+02 F= -.99751520E+02 E0= -.99753453E+02  EK= 0.84727E+00 SP= -.69E+00 SK= 0.50E-04
       N       E                     dE             d eps       ncg     rms          rms(c)
RMM:   1    -0.996192433164E+02    0.13227E+00   -0.97378E-02    72   0.181E+00    0.108E-01
RMM:   2    -0.996198352624E+02   -0.59195E-03   -0.70121E-03    74   0.424E-01    0.725E-02
RMM:   3    -0.996199773824E+02   -0.14212E-03   -0.17755E-03    76   0.168E-01    0.341E-02
RMM:   4    -0.996199984355E+02   -0.21053E-04   -0.29185E-04    77   0.689E-02    0.130E-02
RMM:   5    -0.996200008200E+02   -0.23845E-05   -0.40958E-05    59   0.302E-02    0.462E-03
RMM:   6    -0.996200019998E+02   -0.11798E-05   -0.85520E-06    47   0.140E-02
    287 T=   372. E= -.99592001E+02 F= -.99620002E+02 E0= -.99621935E+02  EK= 0.72094E+00 SP= -.69E+00 SK= 0.10E-03
       N       E                     dE             d eps       ncg     rms          rms(c)
RMM:   1    -0.994556090246E+02    0.16439E+00   -0.13173E-01    72   0.194E+00    0.130E-01
RMM:   2    -0.994562504174E+02   -0.64139E-03   -0.87557E-03    72   0.499E-01    0.875E-02
RMM:   3    -0.994564050415E+02   -0.15462E-03   -0.23436E-03    75   0.194E-01    0.362E-02
RMM:   4    -0.994564228830E+02   -0.17841E-04   -0.31427E-04    72   0.806E-02    0.150E-02
RMM:   5    -0.994564314768E+02   -0.85939E-05   -0.10805E-04    66   0.419E-02    0.555E-03
RMM:   6    -0.994564334790E+02   -0.20022E-05   -0.15634E-05    49   0.172E-02
    288 T=   295. E= -.99582175E+02 F= -.99456433E+02 E0= -.99458366E+02  EK= 0.57130E+00 SP= -.70E+00 SK= 0.21E-02
       N       E                     dE             d eps       ncg     rms          rms(c)
RMM:   1    -0.994051991282E+02    0.51232E-01   -0.11251E-01    72   0.198E+00    0.119E-01
RMM:   2    -0.994057827333E+02   -0.58361E-03   -0.72702E-03    73   0.461E-01    0.835E-02
RMM:   3    -0.994058608268E+02   -0.78094E-04   -0.13749E-03    72   0.173E-01    0.317E-02
RMM:   4    -0.994058867551E+02   -0.25928E-04   -0.31302E-04    76   0.781E-02    0.123E-02
RMM:   5    -0.994058939071E+02   -0.71519E-05   -0.69965E-05    64   0.353E-02    0.544E-03
RMM:   6    -0.994058973011E+02   -0.33940E-05   -0.10155E-05    48   0.143E-02
    289 T=   274. E= -.99580412E+02 F= -.99405897E+02 E0= -.99407830E+02  EK= 0.53103E+00 SP= -.71E+00 SK= 0.89E-02
       N       E                     dE             d eps       ncg     rms          rms(c)
RMM:   1    -0.994976229853E+02   -0.91729E-01   -0.72834E-02    72   0.162E+00    0.940E-02
RMM:   2    -0.994979439093E+02   -0.32092E-03   -0.44288E-03    74   0.361E-01    0.683E-02
RMM:   3    -0.994979748165E+02   -0.30907E-04   -0.88639E-04    73   0.139E-01    0.252E-02
RMM:   4    -0.994979938049E+02   -0.18988E-04   -0.18951E-04    77   0.585E-02    0.145E-02
RMM:   5    -0.994980009836E+02   -0.71787E-05   -0.34680E-05    58   0.269E-02    0.507E-03
RMM:   6    -0.994980043374E+02   -0.33538E-05   -0.62565E-06    47   0.118E-02
    290 T=   326. E= -.99585949E+02 F= -.99498004E+02 E0= -.99499937E+02  EK= 0.63275E+00 SP= -.74E+00 SK= 0.19E-01
       N       E                     dE             d eps       ncg     rms          rms(c)
RMM:   1    -0.996441376623E+02   -0.14614E+00   -0.12105E-01    72   0.198E+00    0.129E-01
RMM:   2    -0.996446743626E+02   -0.53670E-03   -0.76624E-03    74   0.430E-01    0.930E-02
RMM:   3    -0.996446786103E+02   -0.42478E-05   -0.15545E-03    73   0.169E-01    0.365E-02
RMM:   4    -0.996447084209E+02   -0.29811E-04   -0.35079E-04    79   0.727E-02    0.205E-02
RMM:   5    -0.996447082012E+02    0.21970E-06   -0.47279E-05    63   0.310E-02    0.904E-03
RMM:   6    -0.996447088070E+02   -0.60573E-06   -0.89564E-06    47   0.137E-02
    291 T=   412. E= -.99591888E+02 F= -.99644709E+02 E0= -.99646641E+02  EK= 0.79854E+00 SP= -.77E+00 SK= 0.27E-01
       N       E                     dE             d eps       ncg     rms          rms(c)
RMM:   1    -0.997472319259E+02   -0.10252E+00   -0.13394E-01    72   0.211E+00    0.117E-01
RMM:   2    -0.997478659056E+02   -0.63398E-03   -0.79180E-03    73   0.460E-01    0.842E-02
RMM:   3    -0.997479418500E+02   -0.75944E-04   -0.16847E-03    76   0.171E-01    0.396E-02
RMM:   4    -0.997479576918E+02   -0.15842E-04   -0.23533E-04    71   0.688E-02    0.138E-02
RMM:   5    -0.997479680330E+02   -0.10341E-04   -0.87486E-05    66   0.361E-02    0.753E-03
RMM:   6    -0.997479692085E+02   -0.11755E-05   -0.10547E-05    48   0.147E-02
    292 T=   480. E= -.99596770E+02 F= -.99747969E+02 E0= -.99749902E+02  EK= 0.93120E+00 SP= -.81E+00 SK= 0.30E-01
       N       E                     dE             d eps       ncg     rms          rms(c)
RMM:   1    -0.997452284514E+02    0.27396E-02   -0.13118E-01    72   0.204E+00    0.925E-02
RMM:   2    -0.997461070160E+02   -0.87856E-03   -0.93409E-03    74   0.491E-01    0.639E-02
RMM:   3    -0.997462553489E+02   -0.14833E-03   -0.16766E-03    73   0.178E-01    0.414E-02
RMM:   4    -0.997462830421E+02   -0.27693E-04   -0.36017E-04    72   0.829E-02    0.687E-03
RMM:   5    -0.997462973676E+02   -0.14325E-04   -0.13606E-04    66   0.411E-02    0.640E-03
RMM:   6    -0.997462989902E+02   -0.16227E-05   -0.10497E-05    48   0.141E-02
    293 T=   500. E= -.99595385E+02 F= -.99746299E+02 E0= -.99748232E+02  EK= 0.96939E+00 SP= -.85E+00 SK= 0.29E-01
       N       E                     dE             d eps       ncg     rms          rms(c)
RMM:   1    -0.996819295838E+02    0.64368E-01   -0.18604E-01    72   0.226E+00    0.147E-01
RMM:   2    -0.996827791818E+02   -0.84960E-03   -0.12119E-02    72   0.557E-01    0.963E-02
RMM:   3    -0.996829488787E+02   -0.16970E-03   -0.33129E-03    76   0.218E-01    0.379E-02
RMM:   4    -0.996829779831E+02   -0.29104E-04   -0.41962E-04    72   0.869E-02    0.246E-02
RMM:   5    -0.996829919113E+02   -0.13928E-04   -0.14713E-04    67   0.472E-02    0.748E-03
RMM:   6    -0.996829944428E+02   -0.25315E-05   -0.36036E-05    55   0.230E-02
    294 T=   492. E= -.99586113E+02 F= -.99682994E+02 E0= -.99684927E+02  EK= 0.95314E+00 SP= -.89E+00 SK= 0.29E-01
       N       E                     dE             d eps       ncg     rms          rms(c)
RMM:   1    -0.996937626290E+02   -0.10771E-01   -0.19233E-01    72   0.247E+00    0.168E-01
RMM:   2    -0.996945849502E+02   -0.82232E-03   -0.11834E-02    73   0.545E-01    0.118E-01
RMM:   3    -0.996946080846E+02   -0.23134E-04   -0.26842E-03    74   0.212E-01    0.386E-02
RMM:   4    -0.996946564806E+02   -0.48396E-04   -0.51579E-04    76   0.877E-02    0.279E-02
RMM:   5    -0.996946638113E+02   -0.73307E-05   -0.90523E-05    68   0.424E-02    0.782E-03
RMM:   6    -0.996946658875E+02   -0.20763E-05   -0.19078E-05    51   0.202E-02
    295 T=   517. E= -.99585905E+02 F= -.99694666E+02 E0= -.99696599E+02  EK= 0.10025E+01 SP= -.92E+00 SK= 0.29E-01
       N       E                     dE             d eps       ncg     rms          rms(c)
RMM:   1    -0.997786044210E+02   -0.83941E-01   -0.79293E-02    72   0.167E+00    0.856E-02
RMM:   2    -0.997792827907E+02   -0.67837E-03   -0.72226E-03    76   0.389E-01    0.597E-02
RMM:   3    -0.997793845899E+02   -0.10180E-03   -0.11867E-03    73   0.147E-01    0.315E-02
RMM:   4    -0.997794202134E+02   -0.35623E-04   -0.32831E-04    76   0.712E-02    0.115E-02
RMM:   5    -0.997794308097E+02   -0.10596E-04   -0.89491E-05    61   0.336E-02    0.849E-03
RMM:   6    -0.997794324736E+02   -0.16639E-05   -0.58176E-06    47   0.116E-02
    296 T=   575. E= -.99597573E+02 F= -.99779432E+02 E0= -.99781365E+02  EK= 0.11153E+01 SP= -.96E+00 SK= 0.25E-01
       N       E                     dE             d eps       ncg     rms          rms(c)
RMM:   1    -0.997757635070E+02    0.36673E-02   -0.10841E-01    72   0.200E+00    0.126E-01
RMM:   2    -0.997763339310E+02   -0.57042E-03   -0.71351E-03    74   0.418E-01    0.846E-02
RMM:   3    -0.997764477730E+02   -0.11384E-03   -0.15820E-03    74   0.164E-01    0.362E-02
RMM:   4    -0.997764727633E+02   -0.24990E-04   -0.26896E-04    76   0.688E-02    0.131E-02
RMM:   5    -0.997764774965E+02   -0.47332E-05   -0.55604E-05    64   0.321E-02    0.523E-03
RMM:   6    -0.997764784309E+02   -0.93437E-06   -0.75678E-06    47   0.125E-02
    297 T=   591. E= -.99602940E+02 F= -.99776478E+02 E0= -.99778411E+02  EK= 0.11456E+01 SP= -.99E+00 SK= 0.18E-01
       N       E                     dE             d eps       ncg     rms          rms(c)
RMM:   1    -0.996151659532E+02    0.16131E+00   -0.12893E-01    72   0.211E+00    0.130E-01
RMM:   2    -0.996156927703E+02   -0.52682E-03   -0.71500E-03    72   0.460E-01    0.872E-02
RMM:   3    -0.996157942709E+02   -0.10150E-03   -0.15894E-03    74   0.176E-01    0.404E-02
RMM:   4    -0.996158070482E+02   -0.12777E-04   -0.24121E-04    73   0.735E-02    0.133E-02
RMM:   5    -0.996158153791E+02   -0.83309E-05   -0.73884E-05    64   0.367E-02    0.662E-03
RMM:   6    -0.996158180737E+02   -0.26945E-05   -0.99567E-06    47   0.151E-02
    298 T=   528. E= -.99596197E+02 F= -.99615818E+02 E0= -.99617751E+02  EK= 0.10233E+01 SP= -.10E+01 SK= 0.13E-01
       N       E                     dE             d eps       ncg     rms          rms(c)
RMM:   1    -0.994016359052E+02    0.21418E+00   -0.16386E-01    72   0.222E+00    0.142E-01
RMM:   2    -0.994023569994E+02   -0.72109E-03   -0.95565E-03    72   0.543E-01    0.969E-02
RMM:   3    -0.994024918598E+02   -0.13486E-03   -0.23035E-03    75   0.203E-01    0.423E-02
RMM:   4    -0.994025089836E+02   -0.17124E-04   -0.31595E-04    77   0.817E-02    0.197E-02
RMM:   5    -0.994025098652E+02   -0.88153E-06   -0.80232E-05    64   0.364E-02    0.657E-03
RMM:   6    -0.994025096897E+02    0.17546E-06   -0.97132E-06    48   0.148E-02
    299 T=   436. E= -.99586170E+02 F= -.99402510E+02 E0= -.99404442E+02  EK= 0.84495E+00 SP= -.10E+01 SK= 0.14E-01
       N       E                     dE             d eps       ncg     rms          rms(c)
RMM:   1    -0.992880129913E+02    0.11450E+00   -0.15120E-01    72   0.232E+00    0.124E-01
RMM:   2    -0.992887314988E+02   -0.71851E-03   -0.84267E-03    72   0.529E-01    0.863E-02
RMM:   3    -0.992888689822E+02   -0.13748E-03   -0.17950E-03    75   0.196E-01    0.441E-02
RMM:   4    -0.992888882691E+02   -0.19287E-04   -0.29205E-04    73   0.791E-02    0.145E-02
RMM:   5    -0.992888942582E+02   -0.59891E-05   -0.66146E-05    67   0.377E-02    0.560E-03
RMM:   6    -0.992888969837E+02   -0.27255E-05   -0.97692E-06    47   0.151E-02
    300 T=   390. E= -.99583891E+02 F= -.99288897E+02 E0= -.99290830E+02  EK= 0.75644E+00 SP= -.11E+01 SK= 0.19E-01
