PROCAR lm decomposed
# of k-points:    1         # of bands:   36         # of ions:   16

 k-point     1 :    0.00000000 0.00000000 0.00000000     weight = 1.00000000

band     1 # energy  -30.25100837 # occ.  2.00000000
 
ion      s     py     pz     px    dxy    dyz    dz2    dxz  x2-y2    tot
    1  0.000  0.000  0.000  0.000  0.000  0.000  0.000  0.000  0.000  0.000
    2  0.001  0.000  0.000  0.000  0.000  0.000  0.000  0.000  0.000  0.002
    3  0.052  0.005  0.014  0.013  0.000  0.000  0.000  0.000  0.000  0.083
    4  0.001  0.000  0.000  0.000  0.000  0.000  0.000  0.000  0.000  0.002
    5  0.000  0.000  0.000  0.000  0.000  0.000  0.000  0.000  0.000  0.000
    6  0.000  0.000  0.000  0.000  0.000  0.000  0.000  0.000  0.000  0.000
    7  0.780  0.005  0.012  0.011  0.000  0.000  0.000  0.000  0.000  0.808
    8  0.000  0.000  0.000  0.000  0.000  0.000  0.000  0.000  0.000  0.000
    9  0.000  0.000  0.000  0.000  0.000  0.000  0.000  0.000  0.000  0.000
   10  0.000  0.000  0.000  0.000  0.000  0.000  0.000  0.000  0.000  0.000
   11  0.000  0.000  0.000  0.000  0.000  0.000  0.000  0.000  0.000  0.000
   12  0.000  0.000  0.000  0.000  0.000  0.000  0.000  0.000  0.000  0.000
   13  0.000  0.000  0.000  0.000  0.000  0.000  0.000  0.000  0.000  0.000
   14  0.000  0.000  0.000  0.000  0.000  0.000  0.000  0.000  0.000  0.000
   15  0.000  0.000  0.000  0.000  0.000  0.000  0.000  0.000  0.000  0.000
   16  0.000  0.000  0.000  0.000  0.000  0.000  0.000  0.000  0.000  0.000
tot    0.835  0.010  0.027  0.024  0.000  0.000  0.000  0.000  0.000  0.896
 
band     2 # energy  -23.32165082 # occ.  2.00000000
 
ion      s     py     pz     px    dxy    dyz    dz2    dxz  x2-y2    tot
    1  0.000  0.000  0.000  0.000  0.000  0.000  0.000  0.000  0.000  0.000
    2  0.009  0.002  0.000  0.000  0.000  0.000  0.000  0.000  0.000  0.011
    3  0.027  0.008  0.002  0.001  0.000  0.000  0.000  0.000  0.000  0.037
    4  0.190  0.003  0.000  0.000  0.000  0.000  0.000  0.000  0.000  0.193
    5  0.038  0.001  0.005  0.004  0.000  0.000  0.000  0.000  0.000  0.047
    6  0.009  0.001  0.000  0.001  0.000  0.000  0.000  0.000  0.000  0.011
    7  0.008  0.000  0.000  0.000  0.000  0.000  0.000  0.000  0.000  0.009
    8  0.000  0.000  0.000  0.000  0.000  0.000  0.000  0.000  0.000  0.000
    9  0.000  0.000  0.000  0.000  0.000  0.000  0.000  0.000  0.000  0.000
   10  0.000  0.000  0.000  0.000  0.000  0.000  0.000  0.000  0.000  0.000
   11  0.024  0.001  0.001  0.002  0.000  0.000  0.000  0.000  0.000  0.028
   12  0.020  0.002  0.001  0.000  0.000  0.000  0.000  0.000  0.000  0.024
   13  0.001  0.000  0.000  0.000  0.000  0.000  0.000  0.000  0.000  0.001
   14  0.000  0.000  0.000  0.000  0.000  0.000  0.000  0.000  0.000  0.000
   15  0.202  0.006  0.008  0.000  0.000  0.000  0.000  0.000  0.000  0.216
   16  0.179  0.016  0.002  0.003  0.000  0.000  0.000  0.000  0.000  0.199
tot    0.707  0.040  0.019  0.011  0.000  0.000  0.000  0.000  0.000  0.777
 
band     3 # energy  -21.62477956 # occ.  2.00000000
 
ion      s     py     pz     px    dxy    dyz    dz2    dxz  x2-y2    tot
    1  0.001  0.000  0.000  0.000  0.000  0.000  0.000  0.000  0.000  0.002
    2  0.028  0.003  0.000  0.000  0.000  0.000  0.000  0.000  0.000  0.031
    3  0.010  0.001  0.003  0.003  0.000  0.000  0.000  0.000  0.000  0.016
    4  0.001  0.008  0.024  0.029  0.000  0.000  0.000  0.000  0.000  0.063
    5  0.081  0.000  0.006  0.004  0.000  0.000  0.000  0.000  0.000  0.091
    6  0.033  0.002  0.001  0.001  0.000  0.000  0.000  0.000  0.000  0.038
    7  0.000  0.000  0.000  0.000  0.000  0.000  0.000  0.000  0.000  0.001
    8  0.000  0.000  0.000  0.000  0.000  0.000  0.000  0.000  0.000  0.000
    9  0.000  0.000  0.000  0.000  0.000  0.000  0.000  0.000  0.000  0.000
   10  0.000  0.000  0.000  0.000  0.000  0.000  0.000  0.000  0.000  0.000
   11  0.045  0.002  0.002  0.004  0.000  0.000  0.000  0.000  0.000  0.053
   12  0.036  0.004  0.001  0.001  0.000  0.000  0.000  0.000  0.000  0.042
   13  0.004  0.000  0.000  0.000  0.000  0.000  0.000  0.000  0.000  0.004
   14  0.001  0.000  0.000  0.000  0.000  0.000  0.000  0.000  0.000  0.002
   15  0.291  0.004  0.004  0.002  0.000  0.000  0.000  0.000  0.000  0.302
   16  0.136  0.020  0.001  0.001  0.000  0.000  0.000  0.000  0.000  0.158
tot    0.669  0.045  0.043  0.046  0.000  0.000  0.000  0.000  0.000  0.803
 
band     4 # energy  -19.59103577 # occ.  2.00000000
 
ion      s     py     pz     px    dxy    dyz    dz2    dxz  x2-y2    tot
    1  0.045  0.004  0.000  0.000  0.000  0.000  0.000  0.000  0.000  0.049
    2  0.226  0.005  0.000  0.000  0.000  0.000  0.000  0.000  0.000  0.232
    3  0.089  0.006  0.009  0.008  0.000  0.000  0.000  0.000  0.000  0.111
    4  0.001  0.011  0.007  0.006  0.000  0.000  0.000  0.000  0.000  0.025
    5  0.004  0.019  0.002  0.002  0.000  0.000  0.000  0.000  0.000  0.027
    6  0.081  0.001  0.004  0.006  0.000  0.000  0.000  0.000  0.000  0.092
    7  0.019  0.000  0.005  0.005  0.000  0.000  0.000  0.000  0.000  0.029
    8  0.003  0.000  0.000  0.000  0.000  0.000  0.000  0.000  0.000  0.003
    9  0.006  0.000  0.000  0.001  0.000  0.000  0.000  0.000  0.000  0.007
   10  0.004  0.000  0.000  0.000  0.000  0.000  0.000  0.000  0.000  0.005
   11  0.002  0.000  0.000  0.000  0.000  0.000  0.000  0.000  0.000  0.002
   12  0.000  0.000  0.000  0.000  0.000  0.000  0.000  0.000  0.000  0.000
   13  0.000  0.000  0.000  0.000  0.000  0.000  0.000  0.000  0.000  0.000
   14  0.008  0.000  0.000  0.000  0.000  0.000  0.000  0.000  0.000  0.009
   15  0.005  0.000  0.000  0.001  0.000  0.000  0.000  0.000  0.000  0.006
   16  0.129  0.005  0.000  0.000  0.000  0.000  0.000  0.000  0.000  0.134
tot    0.621  0.054  0.028  0.029  0.000  0.000  0.000  0.000  0.000  0.732
 
band     5 # energy  -17.95628507 # occ.  2.00000000
 
ion      s     py     pz     px    dxy    dyz    dz2    dxz  x2-y2    tot
    1  0.001  0.000  0.000  0.000  0.000  0.000  0.000  0.000  0.000  0.002
    2  0.000  0.000  0.015  0.015  0.000  0.000  0.000  0.000  0.000  0.030
    3  0.117  0.009  0.001  0.001  0.000  0.000  0.000  0.000  0.000  0.128
    4  0.082  0.021  0.002  0.003  0.000  0.000  0.000  0.000  0.000  0.107
    5  0.135  0.009  0.000  0.001  0.000  0.000  0.000  0.000  0.000  0.146
    6  0.149  0.006  0.001  0.000  0.000  0.000  0.000  0.000  0.000  0.155
    7  0.018  0.004  0.009  0.008  0.000  0.000  0.000  0.000  0.000  0.039
    8  0.000  0.000  0.000  0.000  0.000  0.000  0.000  0.000  0.000  0.000
    9  0.000  0.000  0.000  0.000  0.000  0.000  0.000  0.000  0.000  0.000
   10  0.000  0.000  0.000  0.000  0.000  0.000  0.000  0.000  0.000  0.000
   11  0.010  0.001  0.000  0.000  0.000  0.000  0.000  0.000  0.000  0.011
   12  0.015  0.001  0.001  0.000  0.000  0.000  0.000  0.000  0.000  0.017
   13  0.025  0.001  0.001  0.001  0.000  0.000  0.000  0.000  0.000  0.028
   14  0.021  0.001  0.001  0.000  0.000  0.000  0.000  0.000  0.000  0.023
   15  0.045  0.003  0.000  0.007  0.000  0.000  0.000  0.000  0.000  0.055
   16  0.001  0.000  0.015  0.013  0.000  0.000  0.000  0.000  0.000  0.029
tot    0.618  0.056  0.045  0.051  0.000  0.000  0.000  0.000  0.000  0.769
 
band     6 # energy  -16.86831020 # occ.  2.00000000
 
ion      s     py     pz     px    dxy    dyz    dz2    dxz  x2-y2    tot
    1  0.260  0.000  0.000  0.000  0.000  0.000  0.000  0.000  0.000  0.261
    2  0.007  0.032  0.003  0.005  0.000  0.000  0.000  0.000  0.000  0.047
    3  0.041  0.027  0.000  0.000  0.000  0.000  0.000  0.000  0.000  0.068
    4  0.013  0.033  0.004  0.002  0.000  0.000  0.000  0.000  0.000  0.052
    5  0.004  0.016  0.001  0.002  0.000  0.000  0.000  0.000  0.000  0.022
    6  0.033  0.003  0.000  0.000  0.000  0.000  0.000  0.000  0.000  0.037
    7  0.002  0.014  0.001  0.001  0.000  0.000  0.000  0.000  0.000  0.018
    8  0.028  0.001  0.001  0.001  0.000  0.000  0.000  0.000  0.000  0.030
    9  0.044  0.000  0.000  0.003  0.000  0.000  0.000  0.000  0.000  0.047
   10  0.048  0.001  0.004  0.000  0.000  0.000  0.000  0.000  0.000  0.052
   11  0.000  0.000  0.000  0.000  0.000  0.000  0.000  0.000  0.000  0.000
   12  0.005  0.000  0.000  0.000  0.000  0.000  0.000  0.000  0.000  0.006
   13  0.001  0.000  0.000  0.000  0.000  0.000  0.000  0.000  0.000  0.002
   14  0.003  0.000  0.000  0.000  0.000  0.000  0.000  0.000  0.000  0.004
   15  0.005  0.005  0.001  0.000  0.000  0.000  0.000  0.000  0.000  0.011
   16  0.043  0.000  0.000  0.000  0.000  0.000  0.000  0.000  0.000  0.043
tot    0.536  0.133  0.015  0.015  0.000  0.000  0.000  0.000  0.000  0.699
 
band     7 # energy  -14.90376580 # occ.  2.00000000
 
ion      s     py     pz     px    dxy    dyz    dz2    dxz  x2-y2    tot
    1  0.010  0.000  0.001  0.001  0.000  0.000  0.000  0.000  0.000  0.012
    2  0.021  0.000  0.021  0.024  0.000  0.000  0.000  0.000  0.000  0.066
    3  0.049  0.000  0.005  0.005  0.000  0.000  0.000  0.000  0.000  0.059
    4  0.020  0.032  0.012  0.011  0.000  0.000  0.000  0.000  0.000  0.076
    5  0.119  0.012  0.001  0.002  0.000  0.000  0.000  0.000  0.000  0.134
    6  0.049  0.033  0.004  0.006  0.000  0.000  0.000  0.000  0.000  0.092
    7  0.022  0.015  0.040  0.033  0.000  0.000  0.000  0.000  0.000  0.110
    8  0.001  0.000  0.000  0.000  0.000  0.000  0.000  0.000  0.000  0.001
    9  0.003  0.000  0.000  0.000  0.000  0.000  0.000  0.000  0.000  0.003
   10  0.004  0.000  0.000  0.000  0.000  0.000  0.000  0.000  0.000  0.004
   11  0.014  0.001  0.000  0.001  0.000  0.000  0.000  0.000  0.000  0.016
   12  0.000  0.000  0.000  0.000  0.000  0.000  0.000  0.000  0.000  0.000
   13  0.045  0.000  0.002  0.002  0.000  0.000  0.000  0.000  0.000  0.050
   14  0.018  0.000  0.001  0.001  0.000  0.000  0.000  0.000  0.000  0.020
   15  0.002  0.003  0.008  0.014  0.000  0.000  0.000  0.000  0.000  0.027
   16  0.003  0.002  0.055  0.050  0.000  0.000  0.000  0.000  0.000  0.110
tot    0.379  0.099  0.151  0.150  0.000  0.000  0.000  0.000  0.000  0.780
 
band     8 # energy  -14.65022523 # occ.  2.00000000
 
ion      s     py     pz     px    dxy    dyz    dz2    dxz  x2-y2    tot
    1  0.079  0.012  0.000  0.000  0.000  0.000  0.000  0.000  0.000  0.092
    2  0.056  0.018  0.011  0.009  0.000  0.000  0.000  0.000  0.000  0.095
    3  0.005  0.102  0.011  0.011  0.000  0.000  0.000  0.000  0.000  0.128
    4  0.076  0.010  0.009  0.004  0.000  0.000  0.000  0.000  0.000  0.099
    5  0.004  0.015  0.006  0.007  0.000  0.000  0.000  0.000  0.000  0.032
    6  0.025  0.000  0.011  0.007  0.000  0.000  0.000  0.000  0.000  0.043
    7  0.000  0.013  0.006  0.006  0.000  0.000  0.000  0.000  0.000  0.025
    8  0.023  0.001  0.000  0.001  0.000  0.000  0.000  0.000  0.000  0.024
    9  0.012  0.000  0.000  0.001  0.000  0.000  0.000  0.000  0.000  0.013
   10  0.026  0.000  0.002  0.000  0.000  0.000  0.000  0.000  0.000  0.029
   11  0.001  0.001  0.000  0.000  0.000  0.000  0.000  0.000  0.000  0.002
   12  0.041  0.002  0.002  0.000  0.000  0.000  0.000  0.000  0.000  0.045
   13  0.006  0.000  0.000  0.000  0.000  0.000  0.000  0.000  0.000  0.007
   14  0.017  0.001  0.000  0.000  0.000  0.000  0.000  0.000  0.000  0.019
   15  0.019  0.046  0.000  0.021  0.000  0.000  0.000  0.000  0.000  0.086
   16  0.016  0.000  0.005  0.003  0.000  0.000  0.000  0.000  0.000  0.024
tot    0.407  0.223  0.064  0.071  0.000  0.000  0.000  0.000  0.000  0.764
 
band     9 # energy  -12.99434136 # occ.  2.00000000
 
ion      s     py     pz     px    dxy    dyz    dz2    dxz  x2-y2    tot
    1  0.001  0.002  0.000  0.000  0.000  0.000  0.000  0.000  0.000  0.003
    2  0.005  0.005  0.003  0.003  0.000  0.000  0.000  0.000  0.000  0.017
    3  0.002  0.045  0.024  0.020  0.000  0.000  0.000  0.000  0.000  0.090
    4  0.003  0.064  0.000  0.000  0.000  0.000  0.000  0.000  0.000  0.068
    5  0.000  0.009  0.015  0.015  0.000  0.000  0.000  0.000  0.000  0.039
    6  0.009  0.000  0.018  0.014  0.000  0.000  0.000  0.000  0.000  0.042
    7  0.014  0.005  0.121  0.116  0.000  0.000  0.000  0.000  0.000  0.256
    8  0.001  0.000  0.000  0.000  0.000  0.000  0.000  0.000  0.000  0.001
    9  0.000  0.000  0.000  0.000  0.000  0.000  0.000  0.000  0.000  0.000
   10  0.001  0.000  0.000  0.000  0.000  0.000  0.000  0.000  0.000  0.001
   11  0.059  0.002  0.000  0.003  0.000  0.000  0.000  0.000  0.000  0.064
   12  0.008  0.000  0.000  0.001  0.000  0.000  0.000  0.000  0.000  0.009
   13  0.011  0.000  0.000  0.000  0.000  0.000  0.000  0.000  0.000  0.012
   14  0.020  0.001  0.000  0.000  0.000  0.000  0.000  0.000  0.000  0.021
   15  0.001  0.020  0.043  0.046  0.000  0.000  0.000  0.000  0.000  0.110
   16  0.000  0.013  0.020  0.019  0.000  0.000  0.000  0.000  0.000  0.052
tot    0.137  0.167  0.246  0.237  0.000  0.000  0.000  0.000  0.000  0.786
 
band    10 # energy  -12.46003907 # occ.  2.00000000
 
ion      s     py     pz     px    dxy    dyz    dz2    dxz  x2-y2    tot
    1  0.001  0.001  0.004  0.004  0.000  0.000  0.000  0.000  0.000  0.009
    2  0.003  0.018  0.021  0.023  0.000  0.000  0.000  0.000  0.000  0.065
    3  0.002  0.000  0.040  0.034  0.000  0.000  0.000  0.000  0.000  0.075
    4  0.014  0.000  0.002  0.001  0.000  0.000  0.000  0.000  0.000  0.017
    5  0.020  0.037  0.014  0.018  0.000  0.000  0.000  0.000  0.000  0.088
    6  0.010  0.086  0.001  0.001  0.000  0.000  0.000  0.000  0.000  0.099
    7  0.008  0.088  0.046  0.042  0.000  0.000  0.000  0.000  0.000  0.185
    8  0.000  0.000  0.000  0.000  0.000  0.000  0.000  0.000  0.000  0.000
    9  0.002  0.000  0.000  0.000  0.000  0.000  0.000  0.000  0.000  0.002
   10  0.004  0.000  0.000  0.000  0.000  0.000  0.000  0.000  0.000  0.004
   11  0.029  0.000  0.000  0.002  0.000  0.000  0.000  0.000  0.000  0.031
   12  0.014  0.001  0.000  0.001  0.000  0.000  0.000  0.000  0.000  0.016
   13  0.026  0.001  0.001  0.001  0.000  0.000  0.000  0.000  0.000  0.029
   14  0.029  0.000  0.002  0.001  0.000  0.000  0.000  0.000  0.000  0.032
   15  0.000  0.026  0.022  0.010  0.000  0.000  0.000  0.000  0.000  0.058
   16  0.038  0.000  0.014  0.013  0.000  0.000  0.000  0.000  0.000  0.065
tot    0.201  0.259  0.168  0.150  0.000  0.000  0.000  0.000  0.000  0.777
 
band    11 # energy  -11.89783207 # occ.  2.00000000
 
ion      s     py     pz     px    dxy    dyz    dz2    dxz  x2-y2    tot
    1  0.007  0.024  0.001  0.000  0.000  0.000  0.000  0.000  0.000  0.033
    2  0.030  0.002  0.005  0.005  0.000  0.000  0.000  0.000  0.000  0.041
    3  0.009  0.032  0.001  0.005  0.000  0.000  0.000  0.000  0.000  0.048
    4  0.005  0.059  0.039  0.012  0.000  0.000  0.000  0.000  0.000  0.115
    5  0.005  0.008  0.004  0.005  0.000  0.000  0.000  0.000  0.000  0.022
    6  0.007  0.000  0.001  0.000  0.000  0.000  0.000  0.000  0.000  0.008
    7  0.001  0.033  0.007  0.001  0.000  0.000  0.000  0.000  0.000  0.041
    8  0.012  0.000  0.000  0.000  0.000  0.000  0.000  0.000  0.000  0.012
    9  0.000  0.000  0.000  0.000  0.000  0.000  0.000  0.000  0.000  0.000
   10  0.011  0.000  0.001  0.000  0.000  0.000  0.000  0.000  0.000  0.012
   11  0.003  0.001  0.000  0.002  0.000  0.000  0.000  0.000  0.000  0.006
   12  0.129  0.005  0.005  0.000  0.000  0.000  0.000  0.000  0.000  0.139
   13  0.014  0.000  0.001  0.001  0.000  0.000  0.000  0.000  0.000  0.015
   14  0.004  0.000  0.000  0.000  0.000  0.000  0.000  0.000  0.000  0.004
   15  0.000  0.205  0.003  0.075  0.000  0.000  0.000  0.000  0.000  0.282
   16  0.000  0.007  0.001  0.004  0.000  0.000  0.000  0.000  0.000  0.012
tot    0.236  0.376  0.068  0.111  0.000  0.000  0.000  0.000  0.000  0.791
 
band    12 # energy  -11.10055869 # occ.  2.00000000
 
ion      s     py     pz     px    dxy    dyz    dz2    dxz  x2-y2    tot
    1  0.000  0.013  0.018  0.015  0.000  0.000  0.000  0.000  0.000  0.046
    2  0.000  0.004  0.009  0.024  0.000  0.000  0.000  0.000  0.000  0.037
    3  0.000  0.001  0.048  0.041  0.000  0.000  0.000  0.000  0.000  0.090
    4  0.001  0.002  0.017  0.012  0.000  0.000  0.000  0.000  0.000  0.031
    5  0.000  0.001  0.007  0.000  0.000  0.000  0.000  0.000  0.000  0.008
    6  0.000  0.004  0.014  0.000  0.000  0.000  0.000  0.000  0.000  0.018
    7  0.000  0.001  0.114  0.202  0.000  0.000  0.000  0.000  0.000  0.317
    8  0.005  0.000  0.000  0.000  0.000  0.000  0.000  0.000  0.000  0.005
    9  0.020  0.000  0.000  0.001  0.000  0.000  0.000  0.000  0.000  0.021
   10  0.023  0.000  0.001  0.000  0.000  0.000  0.000  0.000  0.000  0.024
   11  0.001  0.000  0.000  0.000  0.000  0.000  0.000  0.000  0.000  0.001
   12  0.000  0.000  0.000  0.000  0.000  0.000  0.000  0.000  0.000  0.000
   13  0.002  0.000  0.000  0.000  0.000  0.000  0.000  0.000  0.000  0.002
   14  0.007  0.000  0.000  0.000  0.000  0.000  0.000  0.000  0.000  0.008
   15  0.002  0.000  0.001  0.006  0.000  0.000  0.000  0.000  0.000  0.010
   16  0.000  0.000  0.004  0.006  0.000  0.000  0.000  0.000  0.000  0.010
tot    0.060  0.027  0.234  0.309  0.000  0.000  0.000  0.000  0.000  0.630
 
band    13 # energy  -10.79917771 # occ.  2.00000000
 
ion      s     py     pz     px    dxy    dyz    dz2    dxz  x2-y2    tot
    1  0.000  0.002  0.009  0.007  0.000  0.000  0.000  0.000  0.000  0.017
    2  0.019  0.005  0.007  0.008  0.000  0.000  0.000  0.000  0.000  0.039
    3  0.001  0.025  0.000  0.000  0.000  0.000  0.000  0.000  0.000  0.026
    4  0.002  0.004  0.021  0.027  0.000  0.000  0.000  0.000  0.000  0.055
    5  0.005  0.072  0.002  0.001  0.000  0.000  0.000  0.000  0.000  0.079
    6  0.010  0.025  0.011  0.007  0.000  0.000  0.000  0.000  0.000  0.054
    7  0.001  0.028  0.028  0.013  0.000  0.000  0.000  0.000  0.000  0.069
    8  0.002  0.000  0.000  0.000  0.000  0.000  0.000  0.000  0.000  0.002
    9  0.002  0.000  0.000  0.000  0.000  0.000  0.000  0.000  0.000  0.002
   10  0.007  0.000  0.000  0.000  0.000  0.000  0.000  0.000  0.000  0.007
   11  0.101  0.004  0.000  0.004  0.000  0.000  0.000  0.000  0.000  0.110
   12  0.034  0.001  0.000  0.002  0.000  0.000  0.000  0.000  0.000  0.037
   13  0.017  0.000  0.001  0.001  0.000  0.000  0.000  0.000  0.000  0.019
   14  0.003  0.001  0.000  0.000  0.000  0.000  0.000  0.000  0.000  0.004
   15  0.000  0.044  0.089  0.055  0.000  0.000  0.000  0.000  0.000  0.188
   16  0.002  0.003  0.048  0.034  0.000  0.000  0.000  0.000  0.000  0.087
tot    0.206  0.215  0.217  0.159  0.000  0.000  0.000  0.000  0.000  0.795
 
band    14 # energy  -10.56371602 # occ.  2.00000000
 
ion      s     py     pz     px    dxy    dyz    dz2    dxz  x2-y2    tot
    1  0.001  0.014  0.000  0.000  0.000  0.000  0.000  0.000  0.000  0.016
    2  0.000  0.014  0.018  0.009  0.000  0.000  0.000  0.000  0.000  0.041
    3  0.009  0.005  0.001  0.022  0.000  0.000  0.000  0.000  0.000  0.037
    4  0.001  0.026  0.004  0.014  0.000  0.000  0.000  0.000  0.000  0.046
    5  0.003  0.031  0.030  0.027  0.000  0.000  0.000  0.000  0.000  0.092
    6  0.001  0.070  0.052  0.053  0.000  0.000  0.000  0.000  0.000  0.175
    7  0.000  0.019  0.080  0.002  0.000  0.000  0.000  0.000  0.000  0.102
    8  0.004  0.000  0.000  0.000  0.000  0.000  0.000  0.000  0.000  0.004
    9  0.000  0.000  0.000  0.000  0.000  0.000  0.000  0.000  0.000  0.000
   10  0.004  0.000  0.000  0.000  0.000  0.000  0.000  0.000  0.000  0.004
   11  0.009  0.001  0.000  0.000  0.000  0.000  0.000  0.000  0.000  0.010
   12  0.003  0.000  0.000  0.000  0.000  0.000  0.000  0.000  0.000  0.003
   13  0.039  0.000  0.001  0.001  0.000  0.000  0.000  0.000  0.000  0.041
   14  0.104  0.003  0.002  0.001  0.000  0.000  0.000  0.000  0.000  0.110
   15  0.000  0.007  0.013  0.034  0.000  0.000  0.000  0.000  0.000  0.054
   16  0.004  0.003  0.002  0.000  0.000  0.000  0.000  0.000  0.000  0.009
tot    0.181  0.194  0.205  0.165  0.000  0.000  0.000  0.000  0.000  0.745
 
band    15 # energy   -9.72190708 # occ.  2.00000000
 
ion      s     py     pz     px    dxy    dyz    dz2    dxz  x2-y2    tot
    1  0.002  0.031  0.091  0.018  0.000  0.000  0.000  0.000  0.000  0.142
    2  0.005  0.018  0.003  0.003  0.000  0.000  0.000  0.000  0.000  0.029
    3  0.005  0.000  0.010  0.000  0.000  0.000  0.000  0.000  0.000  0.015
    4  0.000  0.001  0.003  0.020  0.000  0.000  0.000  0.000  0.000  0.024
    5  0.002  0.023  0.002  0.005  0.000  0.000  0.000  0.000  0.000  0.031
    6  0.003  0.029  0.002  0.004  0.000  0.000  0.000  0.000  0.000  0.038
    7  0.000  0.142  0.056  0.013  0.000  0.000  0.000  0.000  0.000  0.211
    8  0.001  0.000  0.001  0.000  0.000  0.000  0.000  0.000  0.000  0.002
    9  0.048  0.000  0.000  0.003  0.000  0.000  0.000  0.000  0.000  0.051
   10  0.081  0.000  0.003  0.000  0.000  0.000  0.000  0.000  0.000  0.085
   11  0.003  0.000  0.000  0.000  0.000  0.000  0.000  0.000  0.000  0.004
   12  0.000  0.000  0.000  0.000  0.000  0.000  0.000  0.000  0.000  0.000
   13  0.004  0.000  0.000  0.000  0.000  0.000  0.000  0.000  0.000  0.004
   14  0.033  0.001  0.001  0.000  0.000  0.000  0.000  0.000  0.000  0.035
   15  0.000  0.003  0.008  0.006  0.000  0.000  0.000  0.000  0.000  0.017
   16  0.000  0.000  0.031  0.012  0.000  0.000  0.000  0.000  0.000  0.044
tot    0.186  0.248  0.212  0.084  0.000  0.000  0.000  0.000  0.000  0.731
 
band    16 # energy   -9.53786122 # occ.  2.00000000
 
ion      s     py     pz     px    dxy    dyz    dz2    dxz  x2-y2    tot
    1  0.000  0.006  0.007  0.098  0.000  0.000  0.000  0.000  0.000  0.111
    2  0.017  0.000  0.005  0.003  0.000  0.000  0.000  0.000  0.000  0.025
    3  0.000  0.008  0.003  0.000  0.000  0.000  0.000  0.000  0.000  0.011
    4  0.001  0.010  0.016  0.007  0.000  0.000  0.000  0.000  0.000  0.033
    5  0.000  0.000  0.029  0.038  0.000  0.000  0.000  0.000  0.000  0.067
    6  0.006  0.001  0.007  0.000  0.000  0.000  0.000  0.000  0.000  0.014
    7  0.000  0.099  0.011  0.067  0.000  0.000  0.000  0.000  0.000  0.176
    8  0.022  0.001  0.001  0.000  0.000  0.000  0.000  0.000  0.000  0.024
    9  0.086  0.000  0.000  0.003  0.000  0.000  0.000  0.000  0.000  0.090
   10  0.009  0.000  0.001  0.001  0.000  0.000  0.000  0.000  0.000  0.011
   11  0.011  0.000  0.000  0.000  0.000  0.000  0.000  0.000  0.000  0.012
   12  0.002  0.000  0.000  0.000  0.000  0.000  0.000  0.000  0.000  0.002
   13  0.048  0.000  0.001  0.001  0.000  0.000  0.000  0.000  0.000  0.051
   14  0.014  0.000  0.000  0.000  0.000  0.000  0.000  0.000  0.000  0.015
   15  0.001  0.001  0.006  0.012  0.000  0.000  0.000  0.000  0.000  0.019
   16  0.002  0.014  0.027  0.024  0.000  0.000  0.000  0.000  0.000  0.068
tot    0.219  0.141  0.114  0.254  0.000  0.000  0.000  0.000  0.000  0.727
 
band    17 # energy   -8.99767930 # occ.  2.00000000
 
ion      s     py     pz     px    dxy    dyz    dz2    dxz  x2-y2    tot
    1  0.000  0.000  0.001  0.006  0.000  0.000  0.000  0.000  0.000  0.007
    2  0.001  0.000  0.004  0.004  0.000  0.000  0.000  0.000  0.000  0.008
    3  0.000  0.002  0.003  0.003  0.000  0.000  0.000  0.000  0.000  0.008
    4  0.000  0.002  0.046  0.058  0.000  0.000  0.000  0.000  0.000  0.106
    5  0.000  0.001  0.028  0.024  0.000  0.000  0.000  0.000  0.000  0.053
    6  0.000  0.000  0.007  0.014  0.000  0.000  0.000  0.000  0.000  0.022
    7  0.000  0.000  0.073  0.091  0.000  0.000  0.000  0.000  0.000  0.164
    8  0.001  0.000  0.000  0.000  0.000  0.000  0.000  0.000  0.000  0.001
    9  0.007  0.000  0.000  0.000  0.000  0.000  0.000  0.000  0.000  0.007
   10  0.001  0.000  0.000  0.000  0.000  0.000  0.000  0.000  0.000  0.001
   11  0.002  0.000  0.001  0.000  0.000  0.000  0.000  0.000  0.000  0.003
   12  0.001  0.000  0.001  0.000  0.000  0.000  0.000  0.000  0.000  0.002
   13  0.000  0.000  0.000  0.000  0.000  0.000  0.000  0.000  0.000  0.001
   14  0.001  0.000  0.000  0.000  0.000  0.000  0.000  0.000  0.000  0.001
   15  0.005  0.019  0.023  0.016  0.000  0.000  0.000  0.000  0.000  0.064
   16  0.000  0.000  0.052  0.082  0.000  0.000  0.000  0.000  0.000  0.134
tot    0.021  0.025  0.239  0.299  0.000  0.000  0.000  0.000  0.000  0.583
 
band    18 # energy   -8.44348954 # occ.  2.00000000
 
ion      s     py     pz     px    dxy    dyz    dz2    dxz  x2-y2    tot
    1  0.000  0.001  0.056  0.027  0.000  0.000  0.000  0.000  0.000  0.083
    2  0.000  0.015  0.023  0.025  0.000  0.000  0.000  0.000  0.000  0.063
    3  0.002  0.016  0.005  0.004  0.000  0.000  0.000  0.000  0.000  0.027
    4  0.009  0.012  0.002  0.003  0.000  0.000  0.000  0.000  0.000  0.025
    5  0.002  0.000  0.004  0.008  0.000  0.000  0.000  0.000  0.000  0.013
    6  0.002  0.000  0.019  0.011  0.000  0.000  0.000  0.000  0.000  0.032
    7  0.000  0.268  0.051  0.046  0.000  0.000  0.000  0.000  0.000  0.365
    8  0.039  0.001  0.000  0.000  0.000  0.000  0.000  0.000  0.000  0.041
    9  0.005  0.000  0.001  0.000  0.000  0.000  0.000  0.000  0.000  0.006
   10  0.037  0.000  0.001  0.000  0.000  0.000  0.000  0.000  0.000  0.039
   11  0.002  0.001  0.000  0.000  0.000  0.000  0.000  0.000  0.000  0.003
   12  0.000  0.000  0.000  0.000  0.000  0.000  0.000  0.000  0.000  0.000
   13  0.017  0.000  0.000  0.000  0.000  0.000  0.000  0.000  0.000  0.018
   14  0.024  0.001  0.000  0.000  0.000  0.000  0.000  0.000  0.000  0.026
   15  0.000  0.000  0.003  0.010  0.000  0.000  0.000  0.000  0.000  0.013
   16  0.004  0.003  0.005  0.002  0.000  0.000  0.000  0.000  0.000  0.014
tot    0.144  0.318  0.171  0.135  0.000  0.000  0.000  0.000  0.000  0.768
 
band    19 # energy   -8.18820025 # occ.  2.00000000
 
ion      s     py     pz     px    dxy    dyz    dz2    dxz  x2-y2    tot
    1  0.000  0.109  0.080  0.001  0.000  0.000  0.000  0.000  0.000  0.191
    2  0.004  0.073  0.001  0.029  0.000  0.000  0.000  0.000  0.000  0.107
    3  0.012  0.029  0.015  0.011  0.000  0.000  0.000  0.000  0.000  0.067
    4  0.006  0.009  0.004  0.000  0.000  0.000  0.000  0.000  0.000  0.020
    5  0.001  0.001  0.000  0.003  0.000  0.000  0.000  0.000  0.000  0.005
    6  0.000  0.001  0.021  0.000  0.000  0.000  0.000  0.000  0.000  0.023
    7  0.000  0.001  0.005  0.000  0.000  0.000  0.000  0.000  0.000  0.007
    8  0.134  0.001  0.000  0.002  0.000  0.000  0.000  0.000  0.000  0.138
    9  0.001  0.001  0.001  0.000  0.000  0.000  0.000  0.000  0.000  0.002
   10  0.029  0.003  0.000  0.000  0.000  0.000  0.000  0.000  0.000  0.032
   11  0.000  0.000  0.000  0.000  0.000  0.000  0.000  0.000  0.000  0.000
   12  0.003  0.000  0.000  0.000  0.000  0.000  0.000  0.000  0.000  0.003
   13  0.001  0.000  0.000  0.000  0.000  0.000  0.000  0.000  0.000  0.002
   14  0.017  0.001  0.000  0.000  0.000  0.000  0.000  0.000  0.000  0.018
   15  0.003  0.001  0.004  0.016  0.000  0.000  0.000  0.000  0.000  0.023
   16  0.002  0.003  0.002  0.002  0.000  0.000  0.000  0.000  0.000  0.009
tot    0.214  0.234  0.134  0.065  0.000  0.000  0.000  0.000  0.000  0.646
 
band    20 # energy   -8.12382253 # occ.  2.00000000
 
ion      s     py     pz     px    dxy    dyz    dz2    dxz  x2-y2    tot
    1  0.001  0.035  0.012  0.094  0.000  0.000  0.000  0.000  0.000  0.142
    2  0.000  0.074  0.043  0.026  0.000  0.000  0.000  0.000  0.000  0.143
    3  0.000  0.000  0.000  0.000  0.000  0.000  0.000  0.000  0.000  0.000
    4  0.000  0.001  0.001  0.002  0.000  0.000  0.000  0.000  0.000  0.004
    5  0.004  0.028  0.039  0.026  0.000  0.000  0.000  0.000  0.000  0.097
    6  0.000  0.031  0.031  0.034  0.000  0.000  0.000  0.000  0.000  0.096
    7  0.000  0.000  0.001  0.012  0.000  0.000  0.000  0.000  0.000  0.013
    8  0.010  0.001  0.000  0.000  0.000  0.000  0.000  0.000  0.000  0.011
    9  0.047  0.001  0.001  0.001  0.000  0.000  0.000  0.000  0.000  0.049
   10  0.017  0.000  0.001  0.001  0.000  0.000  0.000  0.000  0.000  0.019
   11  0.003  0.000  0.000  0.000  0.000  0.000  0.000  0.000  0.000  0.003
   12  0.000  0.000  0.000  0.000  0.000  0.000  0.000  0.000  0.000  0.000
   13  0.056  0.000  0.001  0.002  0.000  0.000  0.000  0.000  0.000  0.059
   14  0.006  0.001  0.000  0.000  0.000  0.000  0.000  0.000  0.000  0.006
   15  0.000  0.000  0.004  0.003  0.000  0.000  0.000  0.000  0.000  0.007
   16  0.004  0.039  0.003  0.004  0.000  0.000  0.000  0.000  0.000  0.050
tot    0.147  0.211  0.137  0.205  0.000  0.000  0.000  0.000  0.000  0.700
 
band    21 # energy   -7.21781040 # occ.  2.00000000
 
ion      s     py     pz     px    dxy    dyz    dz2    dxz  x2-y2    tot
    1  0.000  0.004  0.013  0.006  0.000  0.000  0.000  0.000  0.000  0.023
    2  0.000  0.005  0.027  0.010  0.000  0.000  0.000  0.000  0.000  0.043
    3  0.000  0.004  0.000  0.001  0.000  0.000  0.000  0.000  0.000  0.005
    4  0.000  0.002  0.011  0.037  0.000  0.000  0.000  0.000  0.000  0.050
    5  0.001  0.000  0.038  0.033  0.000  0.000  0.000  0.000  0.000  0.072
    6  0.002  0.000  0.034  0.057  0.000  0.000  0.000  0.000  0.000  0.093
    7  0.000  0.000  0.002  0.000  0.000  0.000  0.000  0.000  0.000  0.003
    8  0.004  0.000  0.000  0.000  0.000  0.000  0.000  0.000  0.000  0.004
    9  0.011  0.000  0.000  0.000  0.000  0.000  0.000  0.000  0.000  0.011
   10  0.010  0.000  0.000  0.000  0.000  0.000  0.000  0.000  0.000  0.010
   11  0.003  0.000  0.003  0.000  0.000  0.000  0.000  0.000  0.000  0.006
   12  0.001  0.001  0.001  0.000  0.000  0.000  0.000  0.000  0.000  0.004
   13  0.001  0.000  0.000  0.001  0.000  0.000  0.000  0.000  0.000  0.002
   14  0.000  0.000  0.001  0.001  0.000  0.000  0.000  0.000  0.000  0.002
   15  0.014  0.031  0.108  0.050  0.000  0.000  0.000  0.000  0.000  0.204
   16  0.001  0.003  0.001  0.005  0.000  0.000  0.000  0.000  0.000  0.011