       N       E                     dE             d eps       ncg     rms          rms(c)
RMM:   1     0.797375380689E+03    0.79738E+03   -0.10813E+04    36   0.782E+02
RMM:   2     0.429185354648E+03   -0.36819E+03   -0.42843E+03    36   0.175E+02
RMM:   3     0.253676731961E+03   -0.17551E+03   -0.27438E+03    36   0.140E+02
RMM:   4     0.848750414443E+02   -0.16880E+03   -0.18445E+03    36   0.142E+02
RMM:   5    -0.194566906265E+02   -0.10433E+03   -0.96418E+02    36   0.114E+02
RMM:   6    -0.741356713744E+02   -0.54679E+02   -0.48746E+02    36   0.829E+01
RMM:   7    -0.999433807533E+02   -0.25808E+02   -0.21064E+02    36   0.517E+01
RMM:   8    -0.106447080609E+03   -0.65037E+01   -0.61217E+01    36   0.299E+01
RMM:   9    -0.108282626393E+03   -0.18355E+01   -0.17592E+01    36   0.166E+01
RMM:  10    -0.108908767114E+03   -0.62614E+00   -0.56280E+00    36   0.952E+00
RMM:  11    -0.109108575824E+03   -0.19981E+00   -0.19300E+00    36   0.551E+00
RMM:  12    -0.109181708587E+03   -0.73133E-01   -0.69652E-01    36   0.331E+00
RMM:  13    -0.109208412328E+03   -0.26704E-01   -0.26245E-01    36   0.200E+00
RMM:  14    -0.109219007849E+03   -0.10596E-01   -0.10279E-01    36   0.126E+00
RMM:  15    -0.109224622363E+03   -0.56145E-02   -0.55627E-02    78   0.787E-01
RMM:  16    -0.109226113342E+03   -0.14910E-02   -0.14688E-02    79   0.349E-01
RMM:  17    -0.109226324654E+03   -0.21131E-03   -0.19909E-03    78   0.124E-01
RMM:  18    -0.109226332372E+03   -0.77178E-05   -0.67551E-05    60   0.300E-02
RMM:  19    -0.109226333285E+03   -0.91359E-06   -0.86395E-06    50   0.122E-02
RMM:  20    -0.109226333475E+03   -0.18930E-06   -0.18617E-06    44   0.682E-03    0.164E+01
RMM:  21    -0.101636559279E+03    0.75898E+01   -0.13385E+01   120   0.133E+01    0.885E+00
RMM:  22    -0.998700014143E+02    0.17666E+01   -0.29452E+00   120   0.582E+00    0.385E+00
RMM:  23    -0.995912483054E+02    0.27875E+00   -0.38928E-01   120   0.226E+00    0.111E+00
RMM:  24    -0.995583119491E+02    0.32936E-01   -0.23221E-02   107   0.720E-01    0.325E-01
RMM:  25    -0.995521980429E+02    0.61139E-02   -0.42148E-03    91   0.263E-01    0.176E-01
RMM:  26    -0.995521323954E+02    0.65647E-04   -0.97407E-03   100   0.308E-01    0.925E-02
RMM:  27    -0.995567348666E+02   -0.46025E-02   -0.17353E-03    81   0.143E-01    0.517E-02
RMM:  28    -0.995627726065E+02   -0.60377E-02   -0.80772E-04    76   0.960E-02    0.280E-02
RMM:  29    -0.995669580582E+02   -0.41855E-02   -0.42631E-04    70   0.703E-02    0.176E-02
RMM:  30    -0.995694832394E+02   -0.25252E-02   -0.40087E-04    72   0.586E-02    0.102E-02
RMM:  31    -0.995702548366E+02   -0.77160E-03   -0.14315E-04    65   0.362E-02    0.670E-03
RMM:  32    -0.995704217101E+02   -0.16687E-03   -0.39244E-05    58   0.181E-02    0.271E-03
RMM:  33    -0.995705072912E+02   -0.85581E-04   -0.18246E-05    50   0.114E-02    0.200E-03
RMM:  34    -0.995705458063E+02   -0.38515E-04   -0.64306E-06    45   0.760E-03    0.112E-03
RMM:  35    -0.995705603297E+02   -0.14523E-04   -0.27383E-06    36   0.482E-03    0.358E-04
RMM:  36    -0.995705634215E+02   -0.30918E-05   -0.95395E-07    33   0.371E-03
      1 T=   500. E= -.98600849E+02 F= -.99570563E+02 E0= -.99572496E+02  EK= 0.96971E+00 SP= 0.00E+00 SK= 0.00E+00
       N       E                     dE             d eps       ncg     rms          rms(c)
RMM:   1    -0.994768512780E+02    0.93709E-01   -0.51482E+00    72   0.124E+01    0.671E-01
RMM:   2    -0.994996685046E+02   -0.22817E-01   -0.27558E-01    72   0.328E+00    0.425E-01
RMM:   3    -0.995023351588E+02   -0.26667E-02   -0.44595E-02    73   0.114E+00    0.234E-01
RMM:   4    -0.995025649108E+02   -0.22975E-03   -0.82740E-03    74   0.472E-01    0.647E-02
RMM:   5    -0.995028176460E+02   -0.25274E-03   -0.26313E-03    80   0.228E-01    0.494E-02
RMM:   6    -0.995028433541E+02   -0.25708E-04   -0.27077E-04    77   0.778E-02    0.343E-02
RMM:   7    -0.995028643536E+02   -0.21000E-04   -0.54153E-05    61   0.351E-02    0.738E-03
RMM:   8    -0.995028793196E+02   -0.14966E-04   -0.14344E-05    50   0.176E-02    0.301E-03
RMM:   9    -0.995029090028E+02   -0.29683E-04   -0.78284E-06    48   0.113E-02    0.248E-03
RMM:  10    -0.995029185751E+02   -0.95723E-05   -0.20873E-06    47   0.623E-03
      2 T=   467. E= -.98597300E+02 F= -.99502919E+02 E0= -.99504851E+02  EK= 0.90561E+00 SP= 0.64E-05 SK= 0.34E-08
       N       E                     dE             d eps       ncg     rms          rms(c)
RMM:   1    -0.993635286040E+02    0.13938E+00   -0.21731E-01    72   0.273E+00    0.150E-01
RMM:   2    -0.993643892185E+02   -0.86061E-03   -0.10757E-02    72   0.581E-01    0.106E-01
RMM:   3    -0.993644825653E+02   -0.93347E-04   -0.17532E-03    73   0.206E-01    0.457E-02
RMM:   4    -0.993645131580E+02   -0.30593E-04   -0.32551E-04    72   0.771E-02    0.169E-02
RMM:   5    -0.993645279177E+02   -0.14760E-04   -0.61348E-05    66   0.358E-02    0.632E-03
RMM:   6    -0.993645348900E+02   -0.69723E-05   -0.13216E-05    49   0.165E-02
      3 T=   401. E= -.98588223E+02 F= -.99364535E+02 E0= -.99366468E+02  EK= 0.77758E+00 SP= -.14E-02 SK= 0.18E-03
       N       E                     dE             d eps       ncg     rms          rms(c)
RMM:   1    -0.992849214939E+02    0.79606E-01   -0.13554E-01    72   0.255E+00    0.128E-01
RMM:   2    -0.992855747386E+02   -0.65324E-03   -0.60808E-03    72   0.438E-01    0.867E-02
RMM:   3    -0.992857615991E+02   -0.18686E-03   -0.10525E-03    71   0.169E-01    0.407E-02
RMM:   4    -0.992858176479E+02   -0.56049E-04   -0.21548E-04    74   0.697E-02    0.111E-02
RMM:   5    -0.992858318045E+02   -0.14157E-04   -0.40951E-05    60   0.282E-02    0.426E-03
RMM:   6    -0.992858413029E+02   -0.94984E-05   -0.72439E-06    46   0.124E-02
      4 T=   363. E= -.98588494E+02 F= -.99285841E+02 E0= -.99287774E+02  EK= 0.70302E+00 SP= -.73E-02 SK= 0.16E-02
       N       E                     dE             d eps       ncg     rms          rms(c)
RMM:   1    -0.992654539840E+02    0.20378E-01   -0.30723E-02    72   0.117E+00    0.699E-02
RMM:   2    -0.992656117034E+02   -0.15772E-03   -0.15705E-03    70   0.232E-01    0.470E-02
RMM:   3    -0.992656916752E+02   -0.79972E-04   -0.46707E-04    74   0.962E-02    0.111E-02
RMM:   4    -0.992657053566E+02   -0.13681E-04   -0.58644E-05    64   0.360E-02    0.592E-03
RMM:   5    -0.992657168097E+02   -0.11453E-04   -0.15135E-05    47   0.182E-02    0.199E-03
RMM:   6    -0.992657224346E+02   -0.56249E-05   -0.31939E-06    46   0.828E-03
      5 T=   353. E= -.98595805E+02 F= -.99265722E+02 E0= -.99267655E+02  EK= 0.68432E+00 SP= -.19E-01 SK= 0.49E-02
       N       E                     dE             d eps       ncg     rms          rms(c)
RMM:   1    -0.992015978262E+02    0.64119E-01   -0.44662E-02    72   0.134E+00    0.784E-02
RMM:   2    -0.992017681974E+02   -0.17037E-03   -0.20794E-03    71   0.251E-01    0.539E-02
RMM:   3    -0.992017989758E+02   -0.30778E-04   -0.41438E-04    70   0.962E-02    0.205E-02
RMM:   4    -0.992018106479E+02   -0.11672E-04   -0.10744E-04    68   0.411E-02    0.961E-03
RMM:   5    -0.992018121791E+02   -0.15312E-05   -0.13046E-05    48   0.172E-02    0.310E-03
RMM:   6    -0.992018131009E+02   -0.92175E-06   -0.29935E-06    46   0.805E-03
      6 T=   326. E= -.98596888E+02 F= -.99201813E+02 E0= -.99203746E+02  EK= 0.63262E+00 SP= -.38E-01 SK= 0.11E-01
       N       E                     dE             d eps       ncg     rms          rms(c)
RMM:   1    -0.990757576227E+02    0.12605E+00   -0.64884E-02    72   0.146E+00    0.883E-02
RMM:   2    -0.990759764053E+02   -0.21878E-03   -0.30679E-03    72   0.310E-01    0.604E-02
RMM:   3    -0.990759964451E+02   -0.20040E-04   -0.56373E-04    70   0.114E-01    0.232E-02
RMM:   4    -0.990760076480E+02   -0.11203E-04   -0.12448E-04    72   0.484E-02    0.115E-02
RMM:   5    -0.990760110188E+02   -0.33708E-05   -0.21679E-05    52   0.194E-02    0.452E-03
RMM:   6    -0.990760126768E+02   -0.16580E-05   -0.32717E-06    46   0.819E-03
      7 T=   272. E= -.98592173E+02 F= -.99076013E+02 E0= -.99077945E+02  EK= 0.52817E+00 SP= -.65E-01 SK= 0.21E-01
       N       E                     dE             d eps       ncg     rms          rms(c)
RMM:   1    -0.989593076839E+02    0.11670E+00   -0.75861E-02    72   0.150E+00    0.842E-02
RMM:   2    -0.989596388737E+02   -0.33119E-03   -0.39634E-03    72   0.356E-01    0.565E-02
RMM:   3    -0.989596939576E+02   -0.55084E-04   -0.86886E-04    73   0.127E-01    0.195E-02
RMM:   4    -0.989596993103E+02   -0.53527E-05   -0.11076E-04    72   0.484E-02    0.827E-03
RMM:   5    -0.989596996897E+02   -0.37933E-06   -0.21790E-05    54   0.202E-02    0.387E-03
RMM:   6    -0.989596996575E+02    0.32174E-07   -0.43350E-06    47   0.928E-03
      8 T=   224. E= -.98587736E+02 F= -.98959700E+02 E0= -.98961632E+02  EK= 0.43499E+00 SP= -.10E+00 SK= 0.40E-01
       N       E                     dE             d eps       ncg     rms          rms(c)
RMM:   1    -0.989224770262E+02    0.37223E-01   -0.44459E-02    72   0.133E+00    0.631E-02
RMM:   2    -0.989226602077E+02   -0.18318E-03   -0.21067E-03    72   0.270E-01    0.420E-02
RMM:   3    -0.989226940991E+02   -0.33891E-04   -0.40710E-04    73   0.100E-01    0.215E-02
RMM:   4    -0.989227016906E+02   -0.75915E-05   -0.78906E-05    65   0.408E-02    0.783E-03
RMM:   5    -0.989227033552E+02   -0.16646E-05   -0.16487E-05    51   0.186E-02    0.316E-03
RMM:   6    -0.989227041612E+02   -0.80602E-06   -0.35735E-06    46   0.853E-03
      9 T=   217. E= -.98586395E+02 F= -.98922704E+02 E0= -.98924637E+02  EK= 0.42113E+00 SP= -.15E+00 SK= 0.69E-01
       N       E                     dE             d eps       ncg     rms          rms(c)
RMM:   1    -0.989777513895E+02   -0.55048E-01   -0.19569E-02    72   0.900E-01    0.437E-02
RMM:   2    -0.989778527482E+02   -0.10136E-03   -0.11911E-03    72   0.186E-01    0.297E-02
RMM:   3    -0.989778801662E+02   -0.27418E-04   -0.32399E-04    74   0.723E-02    0.155E-02
RMM:   4    -0.989778837506E+02   -0.35844E-05   -0.43489E-05    60   0.291E-02    0.638E-03
RMM:   5    -0.989778851280E+02   -0.13774E-05   -0.86581E-06    47   0.133E-02    0.231E-03
RMM:   6    -0.989778860061E+02   -0.87813E-06   -0.22861E-06    46   0.694E-03
     10 T=   259. E= -.98589638E+02 F= -.98977886E+02 E0= -.98979819E+02  EK= 0.50300E+00 SP= -.22E+00 SK= 0.10E+00
       N       E                     dE             d eps       ncg     rms          rms(c)
RMM:   1    -0.990645547171E+02   -0.86670E-01   -0.24286E-02    73   0.960E-01    0.439E-02
RMM:   2    -0.990648302485E+02   -0.27553E-03   -0.29256E-03    76   0.209E-01    0.290E-02
RMM:   3    -0.990648755820E+02   -0.45333E-04   -0.45271E-04    76   0.807E-02    0.173E-02
RMM:   4    -0.990648862626E+02   -0.10681E-04   -0.56710E-05    65   0.326E-02    0.614E-03
RMM:   5    -0.990648904233E+02   -0.41606E-05   -0.10037E-05    47   0.146E-02    0.214E-03
RMM:   6    -0.990648926852E+02   -0.22619E-05   -0.25752E-06    46   0.739E-03
     11 T=   324. E= -.98596740E+02 F= -.99064893E+02 E0= -.99066825E+02  EK= 0.62739E+00 SP= -.29E+00 SK= 0.13E+00
       N       E                     dE             d eps       ncg     rms          rms(c)
RMM:   1    -0.990799381091E+02   -0.15048E-01   -0.44473E-02    72   0.134E+00    0.590E-02
RMM:   2    -0.990802910796E+02   -0.35297E-03   -0.37666E-03    74   0.286E-01    0.354E-02
RMM:   3    -0.990803982870E+02   -0.10721E-03   -0.10174E-03    78   0.114E-01    0.257E-02
RMM:   4    -0.990804103506E+02   -0.12064E-04   -0.87555E-05    68   0.413E-02    0.928E-03
RMM:   5    -0.990804166275E+02   -0.62769E-05   -0.24757E-05    54   0.220E-02    0.303E-03
RMM:   6    -0.990804179008E+02   -0.12733E-05   -0.52196E-06    47   0.102E-02
     12 T=   360. E= -.98601739E+02 F= -.99080418E+02 E0= -.99082351E+02  EK= 0.69742E+00 SP= -.38E+00 SK= 0.16E+00
       N       E                     dE             d eps       ncg     rms          rms(c)
RMM:   1    -0.989837094601E+02    0.96707E-01   -0.97341E-02    72   0.187E+00    0.998E-02
RMM:   2    -0.989841238033E+02   -0.41434E-03   -0.52872E-03    73   0.425E-01    0.667E-02
RMM:   3    -0.989841784466E+02   -0.54643E-04   -0.90990E-04    73   0.156E-01    0.332E-02
RMM:   4    -0.989841897360E+02   -0.11289E-04   -0.18777E-04    71   0.597E-02    0.128E-02
RMM:   5    -0.989841930147E+02   -0.32787E-05   -0.38526E-05    60   0.283E-02    0.412E-03
RMM:   6    -0.989841950079E+02   -0.19932E-05   -0.70287E-06    47   0.128E-02
     13 T=   348. E= -.98595131E+02 F= -.98984195E+02 E0= -.98986128E+02  EK= 0.67385E+00 SP= -.47E+00 SK= 0.18E+00
       N       E                     dE             d eps       ncg     rms          rms(c)
RMM:   1    -0.988954472183E+02    0.88746E-01   -0.18319E-01    72   0.252E+00    0.169E-01
RMM:   2    -0.988961708696E+02   -0.72365E-03   -0.11103E-02    73   0.547E-01    0.113E-01
RMM:   3    -0.988963326998E+02   -0.16183E-03   -0.28022E-03    75   0.220E-01    0.404E-02
RMM:   4    -0.988963589745E+02   -0.26275E-04   -0.45317E-04    75   0.882E-02    0.215E-02
RMM:   5    -0.988963623378E+02   -0.33633E-05   -0.70956E-05    66   0.367E-02    0.607E-03
RMM:   6    -0.988963636258E+02   -0.12881E-05   -0.12432E-05    47   0.168E-02
     14 T=   341. E= -.98586384E+02 F= -.98896364E+02 E0= -.98898296E+02  EK= 0.66113E+00 SP= -.56E+00 SK= 0.21E+00
       N       E                     dE             d eps       ncg     rms          rms(c)
RMM:   1    -0.989248395941E+02   -0.28477E-01   -0.66758E-02    72   0.154E+00    0.831E-02
RMM:   2    -0.989254746561E+02   -0.63506E-03   -0.67673E-03    75   0.358E-01    0.520E-02
RMM:   3    -0.989256585797E+02   -0.18392E-03   -0.17028E-03    76   0.150E-01    0.247E-02
RMM:   4    -0.989256818079E+02   -0.23228E-04   -0.18037E-04    71   0.579E-02    0.110E-02
RMM:   5    -0.989256884243E+02   -0.66164E-05   -0.47641E-05    59   0.293E-02    0.281E-03
RMM:   6    -0.989256899162E+02   -0.14918E-05   -0.82673E-06    47   0.126E-02
     15 T=   391. E= -.98594114E+02 F= -.98925690E+02 E0= -.98927623E+02  EK= 0.75833E+00 SP= -.67E+00 SK= 0.24E+00
       N       E                     dE             d eps       ncg     rms          rms(c)
RMM:   1    -0.989580832163E+02   -0.32395E-01   -0.63965E-02    72   0.163E+00    0.799E-02
RMM:   2    -0.989585506161E+02   -0.46740E-03   -0.48605E-03    74   0.329E-01    0.564E-02
RMM:   3    -0.989586586919E+02   -0.10808E-03   -0.10734E-03    77   0.130E-01    0.273E-02
RMM:   4    -0.989586737624E+02   -0.15070E-04   -0.13683E-04    72   0.492E-02    0.913E-03
RMM:   5    -0.989586779140E+02   -0.41516E-05   -0.28533E-05    55   0.229E-02    0.357E-03
RMM:   6    -0.989586796582E+02   -0.17443E-05   -0.62758E-06    47   0.106E-02
     16 T=   452. E= -.98603919E+02 F= -.98958680E+02 E0= -.98960612E+02  EK= 0.87625E+00 SP= -.78E+00 SK= 0.26E+00
       N       E                     dE             d eps       ncg     rms          rms(c)
RMM:   1    -0.988684243302E+02    0.90254E-01   -0.11949E-01    72   0.212E+00    0.113E-01
RMM:   2    -0.988691653054E+02   -0.74098E-03   -0.84793E-03    74   0.419E-01    0.773E-02
RMM:   3    -0.988693398829E+02   -0.17458E-03   -0.21640E-03    77   0.167E-01    0.376E-02
RMM:   4    -0.988693574154E+02   -0.17533E-04   -0.26937E-04    77   0.683E-02    0.130E-02
RMM:   5    -0.988693627439E+02   -0.53285E-05   -0.47849E-05    57   0.272E-02    0.557E-03
RMM:   6    -0.988693654674E+02   -0.27236E-05   -0.90680E-06    49   0.125E-02
     17 T=   461. E= -.98602421E+02 F= -.98869365E+02 E0= -.98871298E+02  EK= 0.89389E+00 SP= -.89E+00 SK= 0.26E+00
       N       E                     dE             d eps       ncg     rms          rms(c)
RMM:   1    -0.986977922004E+02    0.17157E+00   -0.12590E-01    72   0.191E+00    0.109E-01
RMM:   2    -0.986984363576E+02   -0.64416E-03   -0.80979E-03    72   0.439E-01    0.681E-02
RMM:   3    -0.986985887298E+02   -0.15237E-03   -0.19490E-03    75   0.165E-01    0.305E-02
RMM:   4    -0.986986208646E+02   -0.32135E-04   -0.41409E-04    75   0.712E-02    0.110E-02
RMM:   5    -0.986986279293E+02   -0.70648E-05   -0.68199E-05    61   0.289E-02    0.524E-03
RMM:   6    -0.986986305470E+02   -0.26176E-05   -0.76818E-06    48   0.119E-02
     18 T=   429. E= -.98595684E+02 F= -.98698631E+02 E0= -.98700563E+02  EK= 0.83232E+00 SP= -.10E+01 SK= 0.27E+00
       N       E                     dE             d eps       ncg     rms          rms(c)
RMM:   1    -0.985597696343E+02    0.13886E+00   -0.11586E-01    72   0.196E+00    0.769E-02
RMM:   2    -0.985605362970E+02   -0.76666E-03   -0.76588E-03    73   0.446E-01    0.537E-02
RMM:   3    -0.985607379316E+02   -0.20163E-03   -0.20165E-03    76   0.169E-01    0.322E-02
RMM:   4    -0.985607632800E+02   -0.25348E-04   -0.34974E-04    78   0.740E-02    0.830E-03
RMM:   5    -0.985607653665E+02   -0.20866E-05   -0.35531E-05    58   0.266E-02    0.593E-03
RMM:   6    -0.985607655861E+02   -0.21959E-06   -0.86684E-06    47   0.133E-02
     19 T=   411. E= -.98590193E+02 F= -.98560766E+02 E0= -.98562698E+02  EK= 0.79687E+00 SP= -.11E+01 SK= 0.29E+00
       N       E                     dE             d eps       ncg     rms          rms(c)
RMM:   1    -0.985349916635E+02    0.25774E-01   -0.70171E-02    72   0.160E+00    0.695E-02
RMM:   2    -0.985355509836E+02   -0.55932E-03   -0.58855E-03    74   0.353E-01    0.495E-02
RMM:   3    -0.985356655117E+02   -0.11453E-03   -0.13275E-03    77   0.137E-01    0.301E-02
RMM:   4    -0.985356784367E+02   -0.12925E-04   -0.18194E-04    73   0.575E-02    0.983E-03
RMM:   5    -0.985356857587E+02   -0.73220E-05   -0.40776E-05    59   0.255E-02    0.647E-03
RMM:   6    -0.985356919150E+02   -0.61563E-05   -0.10527E-05    48   0.141E-02
     20 T=   451. E= -.98588262E+02 F= -.98535692E+02 E0= -.98537625E+02  EK= 0.87517E+00 SP= -.12E+01 SK= 0.31E+00
       N       E                     dE             d eps       ncg     rms          rms(c)
RMM:   1    -0.986256632124E+02   -0.89977E-01   -0.34323E-02    72   0.107E+00    0.599E-02
RMM:   2    -0.986259916574E+02   -0.32844E-03   -0.37370E-03    74   0.257E-01    0.406E-02
RMM:   3    -0.986260403642E+02   -0.48707E-04   -0.75127E-04    77   0.105E-01    0.180E-02
RMM:   4    -0.986260528667E+02   -0.12503E-04   -0.10832E-04    70   0.417E-02    0.109E-02
RMM:   5    -0.986260574266E+02   -0.45599E-05   -0.14694E-05    49   0.177E-02    0.405E-03
RMM:   6    -0.986260595081E+02   -0.20815E-05   -0.37381E-06    47   0.938E-03
     21 T=   558. E= -.98593852E+02 F= -.98626060E+02 E0= -.98627992E+02  EK= 0.10817E+01 SP= -.14E+01 SK= 0.31E+00
       N       E                     dE             d eps       ncg     rms          rms(c)
RMM:   1    -0.987289400451E+02   -0.10288E+00   -0.70311E-02    72   0.156E+00    0.703E-02
RMM:   2    -0.987298983563E+02   -0.95831E-03   -0.10035E-02    77   0.352E-01    0.514E-02
RMM:   3    -0.987299958420E+02   -0.97486E-04   -0.11542E-03    75   0.135E-01    0.382E-02
RMM:   4    -0.987300220714E+02   -0.26229E-04   -0.28677E-04    75   0.661E-02    0.110E-02
RMM:   5    -0.987300293249E+02   -0.72535E-05   -0.41703E-05    59   0.267E-02    0.633E-03
RMM:   6    -0.987300338819E+02   -0.45570E-05   -0.83127E-06    47   0.133E-02
     22 T=   682. E= -.98607318E+02 F= -.98730034E+02 E0= -.98731967E+02  EK= 0.13217E+01 SP= -.15E+01 SK= 0.28E+00
       N       E                     dE             d eps       ncg     rms          rms(c)
RMM:   1    -0.986799378808E+02    0.50091E-01   -0.15341E-01    72   0.228E+00    0.101E-01
RMM:   2    -0.986818003258E+02   -0.18624E-02   -0.19018E-02    75   0.509E-01    0.694E-02
RMM:   3    -0.986820890591E+02   -0.28873E-03   -0.30276E-03    75   0.204E-01    0.554E-02
RMM:   4    -0.986821234108E+02   -0.34352E-04   -0.45793E-04    71   0.917E-02    0.171E-02
RMM:   5    -0.986821461736E+02   -0.22763E-04   -0.15128E-04    72   0.454E-02    0.831E-03
RMM:   6    -0.986821522628E+02   -0.60892E-05   -0.23521E-05    52   0.208E-02
     23 T=   736. E= -.98615429E+02 F= -.98682152E+02 E0= -.98684085E+02  EK= 0.14273E+01 SP= -.16E+01 SK= 0.22E+00
       N       E                     dE             d eps       ncg     rms          rms(c)
RMM:   1    -0.984577576000E+02    0.22439E+00   -0.25707E-01    72   0.288E+00    0.164E-01
RMM:   2    -0.984590916748E+02   -0.13341E-02   -0.16333E-02    72   0.677E-01    0.108E-01
RMM:   3    -0.984593828630E+02   -0.29119E-03   -0.39221E-03    77   0.254E-01    0.599E-02
RMM:   4    -0.984594002484E+02   -0.17385E-04   -0.50472E-04    72   0.963E-02    0.154E-02
RMM:   5    -0.984594155592E+02   -0.15311E-04   -0.13210E-04    68   0.457E-02    0.822E-03
RMM:   6    -0.984594216981E+02   -0.61389E-05   -0.17817E-05    52   0.198E-02
     24 T=   705. E= -.98598515E+02 F= -.98459422E+02 E0= -.98461354E+02  EK= 0.13665E+01 SP= -.17E+01 SK= 0.18E+00
       N       E                     dE             d eps       ncg     rms          rms(c)
RMM:   1    -0.983324992156E+02    0.12692E+00   -0.51589E-01    72   0.429E+00    0.276E-01
RMM:   2    -0.983348410909E+02   -0.23419E-02   -0.31075E-02    72   0.891E-01    0.183E-01
RMM:   3    -0.983353918122E+02   -0.55072E-03   -0.79571E-03    75   0.366E-01    0.738E-02
RMM:   4    -0.983354842596E+02   -0.92447E-04   -0.12315E-03    78   0.148E-01    0.334E-02
RMM:   5    -0.983354991473E+02   -0.14888E-04   -0.17390E-04    69   0.589E-02    0.950E-03
RMM:   6    -0.983355079294E+02   -0.87822E-05   -0.56362E-05    60   0.289E-02
     25 T=   709. E= -.98589040E+02 F= -.98335508E+02 E0= -.98337441E+02  EK= 0.13740E+01 SP= -.18E+01 SK= 0.14E+00
       N       E                     dE             d eps       ncg     rms          rms(c)
RMM:   1    -0.984144342256E+02   -0.78935E-01   -0.15737E-01    72   0.236E+00    0.129E-01
RMM:   2    -0.984162611765E+02   -0.18270E-02   -0.18348E-02    76   0.522E-01    0.925E-02
RMM:   3    -0.984164846273E+02   -0.22345E-03   -0.23397E-03    75   0.205E-01    0.471E-02
RMM:   4    -0.984165801463E+02   -0.95519E-04   -0.67622E-04    77   0.995E-02    0.153E-02
RMM:   5    -0.984165960156E+02   -0.15869E-04   -0.12437E-04    67   0.383E-02    0.890E-03
RMM:   6    -0.984166071077E+02   -0.11092E-04   -0.12978E-05    48   0.174E-02    0.274E-03
RMM:   7    -0.984166122695E+02   -0.51619E-05   -0.29508E-06    46   0.814E-03
     26 T=   799. E= -.98611516E+02 F= -.98416612E+02 E0= -.98418545E+02  EK= 0.15486E+01 SP= -.18E+01 SK= 0.10E+00
       N       E                     dE             d eps       ncg     rms          rms(c)
RMM:   1    -0.984149759061E+02    0.16312E-02   -0.16675E-01    72   0.263E+00    0.159E-01
RMM:   2    -0.984157953137E+02   -0.81941E-03   -0.94656E-03    74   0.508E-01    0.107E-01
RMM:   3    -0.984159514946E+02   -0.15618E-03   -0.18340E-03    72   0.196E-01    0.407E-02
RMM:   4    -0.984159919875E+02   -0.40493E-04   -0.37241E-04    78   0.846E-02    0.159E-02
RMM:   5    -0.984160004132E+02   -0.84257E-05   -0.63896E-05    62   0.337E-02    0.632E-03
RMM:   6    -0.984160039927E+02   -0.35795E-05   -0.99023E-06    47   0.149E-02
     27 T=   848. E= -.98619905E+02 F= -.98416004E+02 E0= -.98417937E+02  EK= 0.16450E+01 SP= -.19E+01 SK= 0.58E-01
       N       E                     dE             d eps       ncg     rms          rms(c)
RMM:   1    -0.982186557537E+02    0.19734E+00   -0.23178E-01    72   0.292E+00    0.184E-01
RMM:   2    -0.982195626075E+02   -0.90685E-03   -0.12745E-02    72   0.589E-01    0.122E-01
RMM:   3    -0.982196818606E+02   -0.11925E-03   -0.25311E-03    74   0.226E-01    0.515E-02
RMM:   4    -0.982197030792E+02   -0.21219E-04   -0.37008E-04    70   0.946E-02    0.182E-02
RMM:   5    -0.982197201423E+02   -0.17063E-04   -0.13845E-04    75   0.485E-02    0.802E-03
RMM:   6    -0.982197264778E+02   -0.63355E-05   -0.16629E-05    51   0.184E-02
     28 T=   791. E= -.98609735E+02 F= -.98219726E+02 E0= -.98221659E+02  EK= 0.15344E+01 SP= -.20E+01 SK= 0.27E-01
       N       E                     dE             d eps       ncg     rms          rms(c)
RMM:   1    -0.979700671670E+02    0.24965E+00   -0.22116E-01    72   0.275E+00    0.134E-01
RMM:   2    -0.979712019943E+02   -0.11348E-02   -0.12424E-02    72   0.613E-01    0.854E-02
RMM:   3    -0.979715426704E+02   -0.34068E-03   -0.34033E-03    75   0.224E-01    0.303E-02
RMM:   4    -0.979715739358E+02   -0.31265E-04   -0.34561E-04    74   0.846E-02    0.118E-02
RMM:   5    -0.979715802328E+02   -0.62970E-05   -0.77646E-05    66   0.359E-02    0.553E-03
RMM:   6    -0.979715823590E+02   -0.21262E-05   -0.13682E-05    49   0.165E-02
     29 T=   692. E= -.98599301E+02 F= -.97971582E+02 E0= -.97973515E+02  EK= 0.13420E+01 SP= -.20E+01 SK= 0.12E-01
       N       E                     dE             d eps       ncg     rms          rms(c)
RMM:   1    -0.978244162607E+02    0.14716E+00   -0.17442E-01    72   0.262E+00    0.112E-01
RMM:   2    -0.978257256471E+02   -0.13094E-02   -0.13422E-02    74   0.552E-01    0.698E-02
RMM:   3    -0.978261182344E+02   -0.39259E-03   -0.37039E-03    75   0.217E-01    0.397E-02
RMM:   4    -0.978261839222E+02   -0.65688E-04   -0.42991E-04    76   0.889E-02    0.157E-02
RMM:   5    -0.978262087521E+02   -0.24830E-04   -0.85729E-05    64   0.375E-02    0.528E-03
RMM:   6    -0.978262230173E+02   -0.14265E-04   -0.11930E-05    47   0.161E-02    0.215E-03
RMM:   7    -0.978262345092E+02   -0.11492E-04   -0.38271E-06    46   0.907E-03    0.909E-04
RMM:   8    -0.978262475901E+02   -0.13081E-04   -0.18794E-06    45   0.596E-03    0.636E-04
RMM:   9    -0.978262596689E+02   -0.12079E-04   -0.12534E-06    40   0.442E-03    0.528E-04
RMM:  10    -0.978262654549E+02   -0.57861E-05   -0.88096E-07    36   0.369E-03
     30 T=   633. E= -.98594759E+02 F= -.97826265E+02 E0= -.97828198E+02  EK= 0.12281E+01 SP= -.20E+01 SK= 0.57E-02
       N       E                     dE             d eps       ncg     rms          rms(c)
RMM:   1    -0.978503176096E+02   -0.24058E-01   -0.10212E-01    72   0.196E+00    0.926E-02
RMM:   2    -0.978511358204E+02   -0.81821E-03   -0.87220E-03    74   0.430E-01    0.579E-02
RMM:   3    -0.978513652693E+02   -0.22945E-03   -0.23167E-03    76   0.174E-01    0.293E-02
RMM:   4    -0.978514137024E+02   -0.48433E-04   -0.32301E-04    74   0.705E-02    0.151E-02
RMM:   5    -0.978514324746E+02   -0.18772E-04   -0.67022E-05    62   0.305E-02    0.593E-03
RMM:   6    -0.978514406931E+02   -0.82185E-05   -0.60739E-06    46   0.119E-02
     31 T=   655. E= -.98595879E+02 F= -.97851441E+02 E0= -.97853373E+02  EK= 0.12691E+01 SP= -.20E+01 SK= 0.21E-02
       N       E                     dE             d eps       ncg     rms          rms(c)
RMM:   1    -0.980227067707E+02   -0.17127E+00   -0.12218E-01    72   0.220E+00    0.989E-02
RMM:   2    -0.980237452128E+02   -0.10384E-02   -0.11295E-02    74   0.469E-01    0.667E-02
RMM:   3    -0.980240186248E+02   -0.27341E-03   -0.29663E-03    76   0.193E-01    0.456E-02
RMM:   4    -0.980240591213E+02   -0.40497E-04   -0.38677E-04    74   0.801E-02    0.170E-02
RMM:   5    -0.980240770696E+02   -0.17948E-04   -0.82004E-05    65   0.386E-02    0.918E-03
RMM:   6    -0.980240820687E+02   -0.49991E-05   -0.12887E-05    48   0.151E-02
     32 T=   743. E= -.98604322E+02 F= -.98024082E+02 E0= -.98026015E+02  EK= 0.14405E+01 SP= -.20E+01 SK= 0.25E-05
       N       E                     dE             d eps       ncg     rms          rms(c)
RMM:   1    -0.982146549544E+02   -0.19058E+00   -0.20694E-01    72   0.304E+00    0.124E-01
RMM:   2    -0.982160437633E+02   -0.13888E-02   -0.14707E-02    74   0.585E-01    0.856E-02
RMM:   3    -0.982164024423E+02   -0.35868E-03   -0.37510E-03    76   0.238E-01    0.664E-02
RMM:   4    -0.982164302255E+02   -0.27783E-04   -0.50871E-04    73   0.102E-01    0.212E-02
RMM:   5    -0.982164563985E+02   -0.26173E-04   -0.16745E-04    72   0.535E-02    0.125E-02
RMM:   6    -0.982164538290E+02    0.25695E-05   -0.26732E-05    53   0.223E-02
     33 T=   829. E= -.98618308E+02 F= -.98216454E+02 E0= -.98218386E+02  EK= 0.16075E+01 SP= -.20E+01 SK= 0.43E-02
       N       E                     dE             d eps       ncg     rms          rms(c)
RMM:   1    -0.982400857459E+02   -0.23629E-01   -0.30073E-01    72   0.370E+00    0.155E-01
RMM:   2    -0.982418622672E+02   -0.17765E-02   -0.18363E-02    73   0.710E-01    0.105E-01
RMM:   3    -0.982422967967E+02   -0.43453E-03   -0.41293E-03    75   0.285E-01    0.720E-02
RMM:   4    -0.982423736871E+02   -0.76890E-04   -0.72351E-04    73   0.126E-01    0.162E-02
RMM:   5    -0.982423969235E+02   -0.23236E-04   -0.17598E-04    79   0.551E-02    0.951E-03
RMM:   6    -0.982424008851E+02   -0.39616E-05   -0.25494E-05    53   0.220E-02
     34 T=   821. E= -.98619916E+02 F= -.98242401E+02 E0= -.98244334E+02  EK= 0.15922E+01 SP= -.20E+01 SK= 0.21E-01
       N       E                     dE             d eps       ncg     rms          rms(c)
RMM:   1    -0.981086302213E+02    0.13377E+00   -0.43776E-01    72   0.392E+00    0.230E-01
RMM:   2    -0.981103362549E+02   -0.17060E-02   -0.23564E-02    72   0.859E-01    0.159E-01
RMM:   3    -0.981106111782E+02   -0.27492E-03   -0.49817E-03    73   0.330E-01    0.453E-02
RMM:   4    -0.981106928698E+02   -0.81692E-04   -0.10415E-03    76   0.134E-01    0.203E-02
RMM:   5    -0.981107049335E+02   -0.12064E-04   -0.15159E-04    72   0.541E-02    0.746E-03
RMM:   6    -0.981107086479E+02   -0.37143E-05   -0.28800E-05    54   0.236E-02
     35 T=   734. E= -.98595058E+02 F= -.98110709E+02 E0= -.98112641E+02  EK= 0.14235E+01 SP= -.20E+01 SK= 0.44E-01
       N       E                     dE             d eps       ncg     rms          rms(c)
RMM:   1    -0.981502369558E+02   -0.39532E-01   -0.87544E-01    72   0.602E+00    0.360E-01
RMM:   2    -0.981529740667E+02   -0.27371E-02   -0.40522E-02    72   0.112E+00    0.242E-01
RMM:   3    -0.981536293546E+02   -0.65529E-03   -0.93201E-03    74   0.459E-01    0.902E-02
RMM:   4    -0.981537420946E+02   -0.11274E-03   -0.15680E-03    75   0.182E-01    0.438E-02
RMM:   5    -0.981537694793E+02   -0.27385E-04   -0.33104E-04    75   0.866E-02    0.149E-02
RMM:   6    -0.981537765168E+02   -0.70375E-05   -0.52633E-05    61   0.324E-02
     36 T=   719. E= -.98593409E+02 F= -.98153777E+02 E0= -.98155709E+02  EK= 0.13950E+01 SP= -.19E+01 SK= 0.66E-01
       N       E                     dE             d eps       ncg     rms          rms(c)
RMM:   1    -0.983987950001E+02   -0.24503E+00   -0.21240E-01    72   0.318E+00    0.173E-01
RMM:   2    -0.983998821339E+02   -0.10871E-02   -0.12149E-02    72   0.603E-01    0.118E-01
RMM:   3    -0.984002373382E+02   -0.35520E-03   -0.31111E-03    75   0.252E-01    0.412E-02
RMM:   4    -0.984003071930E+02   -0.69855E-04   -0.64422E-04    79   0.102E-01    0.228E-02
RMM:   5    -0.984003194950E+02   -0.12302E-04   -0.56677E-05    61   0.366E-02    0.798E-03
RMM:   6    -0.984003279257E+02   -0.84307E-05   -0.15702E-05    50   0.186E-02
     37 T=   784. E= -.98619325E+02 F= -.98400328E+02 E0= -.98402261E+02  EK= 0.15193E+01 SP= -.18E+01 SK= 0.10E+00
       N       E                     dE             d eps       ncg     rms          rms(c)
RMM:   1    -0.984885003161E+02   -0.88181E-01   -0.25691E-01    72   0.346E+00    0.178E-01
RMM:   2    -0.984896634918E+02   -0.11632E-02   -0.12921E-02    72   0.628E-01    0.122E-01
RMM:   3    -0.984899506765E+02   -0.28718E-03   -0.28972E-03    74   0.246E-01    0.499E-02
RMM:   4    -0.984900106839E+02   -0.60007E-04   -0.55001E-04    75   0.103E-01    0.181E-02
RMM:   5    -0.984900218215E+02   -0.11138E-04   -0.84658E-05    68   0.405E-02    0.771E-03
RMM:   6    -0.984900255045E+02   -0.36830E-05   -0.14313E-05    49   0.178E-02
     38 T=   767. E= -.98616576E+02 F= -.98490026E+02 E0= -.98491958E+02  EK= 0.14867E+01 SP= -.18E+01 SK= 0.15E+00
       N       E                     dE             d eps       ncg     rms          rms(c)
RMM:   1    -0.983626073451E+02    0.12741E+00   -0.28200E-01    72   0.342E+00    0.175E-01
RMM:   2    -0.983636345153E+02   -0.10272E-02   -0.13464E-02    72   0.633E-01    0.124E-01
RMM:   3    -0.983637503763E+02   -0.11586E-03   -0.24620E-03    72   0.241E-01    0.576E-02
RMM:   4    -0.983637843492E+02   -0.33973E-04   -0.51622E-04    73   0.105E-01    0.209E-02
RMM:   5    -0.983637988892E+02   -0.14540E-04   -0.12901E-04    72   0.487E-02    0.898E-03
RMM:   6    -0.983638043406E+02   -0.54514E-05   -0.20817E-05    49   0.195E-02
     39 T=   643. E= -.98600398E+02 F= -.98363804E+02 E0= -.98365737E+02  EK= 0.12461E+01 SP= -.17E+01 SK= 0.19E+00
       N       E                     dE             d eps       ncg     rms          rms(c)
RMM:   1    -0.981973250706E+02    0.16647E+00   -0.21152E-01    72   0.278E+00    0.120E-01
RMM:   2    -0.981984876444E+02   -0.11626E-02   -0.12163E-02    73   0.586E-01    0.806E-02
RMM:   3    -0.981988322958E+02   -0.34465E-03   -0.33163E-03    76   0.220E-01    0.327E-02
RMM:   4    -0.981988578910E+02   -0.25595E-04   -0.38799E-04    75   0.842E-02    0.122E-02
RMM:   5    -0.981988613272E+02   -0.34361E-05   -0.73870E-05    64   0.355E-02    0.435E-03
RMM:   6    -0.981988629852E+02   -0.16581E-05   -0.13705E-05    49   0.164E-02
     40 T=   504. E= -.98591701E+02 F= -.98198863E+02 E0= -.98200796E+02  EK= 0.97800E+00 SP= -.16E+01 SK= 0.20E+00
       N       E                     dE             d eps       ncg     rms          rms(c)
RMM:   1    -0.981261943331E+02    0.72667E-01   -0.15874E-01    72   0.250E+00    0.881E-02
RMM:   2    -0.981273741146E+02   -0.11798E-02   -0.11545E-02    74   0.538E-01    0.608E-02
RMM:   3    -0.981277310357E+02   -0.35692E-03   -0.32526E-03    76   0.207E-01    0.360E-02
RMM:   4    -0.981277856764E+02   -0.54641E-04   -0.46661E-04    77   0.859E-02    0.108E-02
RMM:   5    -0.981277981627E+02   -0.12486E-04   -0.62176E-05    63   0.326E-02    0.580E-03
RMM:   6    -0.981278067551E+02   -0.85924E-05   -0.92431E-06    48   0.141E-02
     41 T=   422. E= -.98590881E+02 F= -.98127807E+02 E0= -.98129739E+02  EK= 0.81814E+00 SP= -.15E+01 SK= 0.20E+00
       N       E                     dE             d eps       ncg     rms          rms(c)
RMM:   1    -0.981806800368E+02   -0.52882E-01   -0.86965E-02    72   0.181E+00    0.703E-02
RMM:   2    -0.981813784450E+02   -0.69841E-03   -0.71920E-03    73   0.408E-01    0.498E-02
RMM:   3    -0.981815894841E+02   -0.21104E-03   -0.21999E-03    79   0.160E-01    0.335E-02
RMM:   4    -0.981816017463E+02   -0.12262E-04   -0.18568E-04    73   0.624E-02    0.120E-02
RMM:   5    -0.981816113995E+02   -0.96531E-05   -0.48000E-05    62   0.283E-02    0.697E-03
RMM:   6    -0.981816167092E+02   -0.53097E-05   -0.77644E-06    47   0.127E-02
     42 T=   408. E= -.98594481E+02 F= -.98181617E+02 E0= -.98183549E+02  EK= 0.79040E+00 SP= -.14E+01 SK= 0.18E+00
       N       E                     dE             d eps       ncg     rms          rms(c)
RMM:   1    -0.983107359131E+02   -0.12912E+00   -0.76606E-02    72   0.171E+00    0.771E-02
RMM:   2    -0.983112570059E+02   -0.52109E-03   -0.57337E-03    72   0.373E-01    0.555E-02
RMM:   3    -0.983113676287E+02   -0.11062E-03   -0.14539E-03    77   0.145E-01    0.284E-02
RMM:   4    -0.983113851052E+02   -0.17477E-04   -0.19029E-04    74   0.582E-02    0.118E-02
RMM:   5    -0.983113901686E+02   -0.50633E-05   -0.33240E-05    55   0.234E-02    0.631E-03
RMM:   6    -0.983113923202E+02   -0.21517E-05   -0.68004E-06    47   0.120E-02
     43 T=   431. E= -.98601171E+02 F= -.98311392E+02 E0= -.98313325E+02  EK= 0.83636E+00 SP= -.13E+01 SK= 0.17E+00
       N       E                     dE             d eps       ncg     rms          rms(c)
RMM:   1    -0.984080876959E+02   -0.96698E-01   -0.93721E-02    72   0.195E+00    0.901E-02
RMM:   2    -0.984086050764E+02   -0.51738E-03   -0.60848E-03    72   0.410E-01    0.615E-02
RMM:   3    -0.984087141213E+02   -0.10904E-03   -0.14547E-03    75   0.157E-01    0.333E-02
RMM:   4    -0.984087375731E+02   -0.23452E-04   -0.21595E-04    76   0.652E-02    0.142E-02
RMM:   5    -0.984087463456E+02   -0.87725E-05   -0.41500E-05    60   0.272E-02    0.462E-03
RMM:   6    -0.984087508821E+02   -0.45365E-05   -0.81136E-06    47   0.132E-02
     44 T=   438. E= -.98606532E+02 F= -.98408751E+02 E0= -.98410684E+02  EK= 0.84903E+00 SP= -.12E+01 SK= 0.16E+00
       N       E                     dE             d eps       ncg     rms          rms(c)
RMM:   1    -0.983805623404E+02    0.28184E-01   -0.11726E-01    72   0.209E+00    0.105E-01
RMM:   2    -0.983811004010E+02   -0.53806E-03   -0.66899E-03    72   0.464E-01    0.708E-02
RMM:   3    -0.983811989256E+02   -0.98525E-04   -0.14553E-03    74   0.172E-01    0.337E-02
RMM:   4    -0.983812181856E+02   -0.19260E-04   -0.22485E-04    74   0.636E-02    0.142E-02
RMM:   5    -0.983812250247E+02   -0.68391E-05   -0.44298E-05    61   0.290E-02    0.367E-03
RMM:   6    -0.983812288039E+02   -0.37792E-05   -0.94442E-06    47   0.136E-02
     45 T=   388. E= -.98601816E+02 F= -.98381229E+02 E0= -.98383161E+02  EK= 0.75251E+00 SP= -.11E+01 SK= 0.15E+00
       N       E                     dE             d eps       ncg     rms          rms(c)
RMM:   1    -0.982907518760E+02    0.90473E-01   -0.19326E-01    72   0.248E+00    0.164E-01
RMM:   2    -0.982912820733E+02   -0.53020E-03   -0.99599E-03    72   0.585E-01    0.114E-01
RMM:   3    -0.982912931472E+02   -0.11074E-04   -0.20191E-03    71   0.219E-01    0.340E-02
RMM:   4    -0.982913219877E+02   -0.28841E-04   -0.50369E-04    76   0.906E-02    0.246E-02
RMM:   5    -0.982913243796E+02   -0.23918E-05   -0.69363E-05    68   0.367E-02    0.679E-03
RMM:   6    -0.982913265148E+02   -0.21353E-05   -0.11535E-05    47   0.162E-02
     46 T=   319. E= -.98588828E+02 F= -.98291327E+02 E0= -.98293259E+02  EK= 0.61813E+00 SP= -.10E+01 SK= 0.12E+00
       N       E                     dE             d eps       ncg     rms          rms(c)
RMM:   1    -0.983186929798E+02   -0.27369E-01   -0.24752E-01    72   0.288E+00    0.212E-01
RMM:   2    -0.983193682088E+02   -0.67523E-03   -0.14971E-02    73   0.621E-01    0.139E-01
RMM:   3    -0.983194918395E+02   -0.12363E-03   -0.37509E-03    74   0.257E-01    0.561E-02
RMM:   4    -0.983195268065E+02   -0.34967E-04   -0.57324E-04    73   0.104E-01    0.294E-02
RMM:   5    -0.983195348584E+02   -0.80519E-05   -0.10349E-04    69   0.457E-02    0.732E-03
RMM:   6    -0.983195377768E+02   -0.29184E-05   -0.23561E-05    51   0.213E-02
     47 T=   309. E= -.98591088E+02 F= -.98319538E+02 E0= -.98321470E+02  EK= 0.59965E+00 SP= -.97E+00 SK= 0.95E-01
       N       E                     dE             d eps       ncg     rms          rms(c)
RMM:   1    -0.984455739613E+02   -0.12604E+00   -0.86861E-02    72   0.164E+00    0.126E-01
RMM:   2    -0.984460579293E+02   -0.48397E-03   -0.76185E-03    74   0.387E-01    0.817E-02
RMM:   3    -0.984461273298E+02   -0.69401E-04   -0.15938E-03    73   0.160E-01    0.296E-02
RMM:   4    -0.984461564024E+02   -0.29073E-04   -0.32912E-04    77   0.724E-02    0.156E-02
RMM:   5    -0.984461623631E+02   -0.59607E-05   -0.52299E-05    62   0.294E-02    0.572E-03
RMM:   6    -0.984461643599E+02   -0.19967E-05   -0.82426E-06    48   0.136E-02
     48 T=   346. E= -.98603609E+02 F= -.98446164E+02 E0= -.98448097E+02  EK= 0.67090E+00 SP= -.90E+00 SK= 0.75E-01
       N       E                     dE             d eps       ncg     rms          rms(c)
RMM:   1    -0.984858552896E+02   -0.39693E-01   -0.10534E-01    72   0.202E+00    0.118E-01
RMM:   2    -0.984863899777E+02   -0.53469E-03   -0.65809E-03    73   0.407E-01    0.851E-02
RMM:   3    -0.984864610252E+02   -0.71047E-04   -0.14531E-03    75   0.158E-01    0.356E-02
RMM:   4    -0.984864698756E+02   -0.88504E-05   -0.19698E-04    73   0.652E-02    0.130E-02
RMM:   5    -0.984864757480E+02   -0.58724E-05   -0.55840E-05    67   0.297E-02    0.571E-03
RMM:   6    -0.984864772137E+02   -0.14657E-05   -0.88872E-06    47   0.136E-02
     49 T=   346. E= -.98602673E+02 F= -.98486477E+02 E0= -.98488410E+02  EK= 0.67076E+00 SP= -.85E+00 SK= 0.59E-01
       N       E                     dE             d eps       ncg     rms          rms(c)
RMM:   1    -0.984127025706E+02    0.73773E-01   -0.13059E-01    72   0.204E+00    0.126E-01
RMM:   2    -0.984133601784E+02   -0.65761E-03   -0.85227E-03    74   0.440E-01    0.883E-02
RMM:   3    -0.984134527668E+02   -0.92588E-04   -0.19897E-03    74   0.168E-01    0.359E-02
RMM:   4    -0.984134621563E+02   -0.93895E-05   -0.25718E-04    75   0.681E-02    0.145E-02
RMM:   5    -0.984134656287E+02   -0.34723E-05   -0.64170E-05    63   0.294E-02    0.523E-03
RMM:   6    -0.984134662506E+02   -0.62195E-06   -0.70573E-06    47   0.122E-02
     50 T=   296. E= -.98594422E+02 F= -.98413466E+02 E0= -.98415399E+02  EK= 0.57318E+00 SP= -.80E+00 SK= 0.43E-01
       N       E                     dE             d eps       ncg     rms          rms(c)
RMM:   1    -0.983297682222E+02    0.83697E-01   -0.10282E-01    72   0.181E+00    0.851E-02
RMM:   2    -0.983303496530E+02   -0.58143E-03   -0.61156E-03    73   0.420E-01    0.531E-02
RMM:   3    -0.983305245328E+02   -0.17488E-03   -0.16991E-03    76   0.154E-01    0.227E-02
RMM:   4    -0.983305481571E+02   -0.23624E-04   -0.25717E-04    77   0.623E-02    0.916E-03
RMM:   5    -0.983305490186E+02   -0.86146E-06   -0.22881E-05    54   0.220E-02    0.403E-03
RMM:   6    -0.983305496556E+02   -0.63700E-06   -0.53106E-06    47   0.111E-02
     51 T=   244. E= -.98589574E+02 F= -.98330550E+02 E0= -.98332482E+02  EK= 0.47353E+00 SP= -.76E+00 SK= 0.25E-01
       N       E                     dE             d eps       ncg     rms          rms(c)
RMM:   1    -0.983171532518E+02    0.13396E-01   -0.68250E-02    72   0.152E+00    0.608E-02
RMM:   2    -0.983176436462E+02   -0.49039E-03   -0.49446E-03    73   0.340E-01    0.422E-02
RMM:   3    -0.983177798814E+02   -0.13624E-03   -0.13649E-03    75   0.129E-01    0.214E-02
RMM:   4    -0.983177989756E+02   -0.19094E-04   -0.16509E-04    71   0.511E-02    0.772E-03
RMM:   5    -0.983178040830E+02   -0.51074E-05   -0.35064E-05    54   0.229E-02    0.382E-03
RMM:   6    -0.983178069368E+02   -0.28538E-05   -0.84410E-06    48   0.117E-02
     52 T=   231. E= -.98589198E+02 F= -.98317807E+02 E0= -.98319740E+02  EK= 0.44804E+00 SP= -.73E+00 SK= 0.98E-02
       N       E                     dE             d eps       ncg     rms          rms(c)
RMM:   1    -0.983853323913E+02   -0.67528E-01   -0.42999E-02    72   0.117E+00    0.509E-02
RMM:   2    -0.983857604691E+02   -0.42808E-03   -0.44934E-03    74   0.282E-01    0.376E-02
RMM:   3    -0.983858350990E+02   -0.74630E-04   -0.89198E-04    75   0.109E-01    0.253E-02
RMM:   4    -0.983858449197E+02   -0.98207E-05   -0.14377E-04    69   0.511E-02    0.620E-03
RMM:   5    -0.983858504865E+02   -0.55669E-05   -0.41025E-05    57   0.243E-02    0.524E-03
RMM:   6    -0.983858537541E+02   -0.32676E-05   -0.79157E-06    46   0.124E-02
     53 T=   261. E= -.98592162E+02 F= -.98385854E+02 E0= -.98387786E+02  EK= 0.50552E+00 SP= -.71E+00 SK= 0.19E-02
       N       E                     dE             d eps       ncg     rms          rms(c)
RMM:   1    -0.984861750226E+02   -0.10032E+00   -0.54962E-02    72   0.135E+00    0.660E-02
RMM:   2    -0.984865954066E+02   -0.42038E-03   -0.47229E-03    74   0.314E-01    0.464E-02
RMM:   3    -0.984866666220E+02   -0.71215E-04   -0.10057E-03    75   0.121E-01    0.247E-02
RMM:   4    -0.984866851431E+02   -0.18521E-04   -0.19258E-04    69   0.530E-02    0.875E-03
RMM:   5    -0.984866918476E+02   -0.67045E-05   -0.39894E-05    56   0.248E-02    0.490E-03
RMM:   6    -0.984866953485E+02   -0.35009E-05   -0.63699E-06    48   0.117E-02
     54 T=   309. E= -.98597092E+02 F= -.98486695E+02 E0= -.98488628E+02  EK= 0.59886E+00 SP= -.71E+00 SK= 0.73E-05
       N       E                     dE             d eps       ncg     rms          rms(c)
RMM:   1    -0.985446974938E+02   -0.58006E-01   -0.93596E-02    72   0.174E+00    0.911E-02
RMM:   2    -0.985454473584E+02   -0.74986E-03   -0.85711E-03    75   0.405E-01    0.614E-02
RMM:   3    -0.985455788905E+02   -0.13153E-03   -0.17003E-03    75   0.157E-01    0.363E-02
RMM:   4    -0.985455989394E+02   -0.20049E-04   -0.28707E-04    71   0.733E-02    0.101E-02
RMM:   5    -0.985456099478E+02   -0.11008E-04   -0.95413E-05    66   0.347E-02    0.694E-03
RMM:   6    -0.985456139889E+02   -0.40410E-05   -0.11376E-05    47   0.152E-02
     55 T=   339. E= -.98599663E+02 F= -.98545614E+02 E0= -.98547547E+02  EK= 0.65824E+00 SP= -.71E+00 SK= 0.15E-02
       N       E                     dE             d eps       ncg     rms          rms(c)
RMM:   1    -0.985332247498E+02    0.12385E-01   -0.13956E-01    72   0.202E+00    0.131E-01
RMM:   2    -0.985341135126E+02   -0.88876E-03   -0.11458E-02    74   0.493E-01    0.865E-02
RMM:   3    -0.985342750834E+02   -0.16157E-03   -0.25026E-03    75   0.191E-01    0.373E-02
RMM:   4    -0.985342878854E+02   -0.12802E-04   -0.26814E-04    72   0.713E-02    0.141E-02
RMM:   5    -0.985342938415E+02   -0.59561E-05   -0.68887E-05    63   0.348E-02    0.467E-03
RMM:   6    -0.985342977970E+02   -0.39555E-05   -0.19257E-05    51   0.176E-02
     56 T=   341. E= -.98594204E+02 F= -.98534298E+02 E0= -.98536230E+02  EK= 0.66078E+00 SP= -.73E+00 SK= 0.50E-02
       N       E                     dE             d eps       ncg     rms          rms(c)
RMM:   1    -0.985391199251E+02   -0.48261E-02   -0.18600E-01    72   0.230E+00    0.181E-01
RMM:   2    -0.985396546986E+02   -0.53477E-03   -0.10804E-02    73   0.549E-01    0.120E-01
RMM:   3    -0.985397065825E+02   -0.51884E-04   -0.26054E-03    72   0.217E-01    0.342E-02
RMM:   4    -0.985397373911E+02   -0.30809E-04   -0.51603E-04    75   0.914E-02    0.216E-02
RMM:   5    -0.985397415598E+02   -0.41687E-05   -0.74781E-05    67   0.381E-02    0.595E-03
RMM:   6    -0.985397437480E+02   -0.21882E-05   -0.18400E-05    51   0.184E-02
     57 T=   354. E= -.98587243E+02 F= -.98539744E+02 E0= -.98541676E+02  EK= 0.68650E+00 SP= -.74E+00 SK= 0.11E-01
       N       E                     dE             d eps       ncg     rms          rms(c)
RMM:   1    -0.986512336152E+02   -0.11149E+00   -0.16155E-01    72   0.219E+00    0.170E-01
RMM:   2    -0.986518169661E+02   -0.58335E-03   -0.10481E-02    72   0.493E-01    0.113E-01
RMM:   3    -0.986519653943E+02   -0.14843E-03   -0.28936E-03    72   0.210E-01    0.419E-02
RMM:   4    -0.986519845209E+02   -0.19127E-04   -0.41872E-04    73   0.861E-02    0.253E-02
RMM:   5    -0.986519886864E+02   -0.41656E-05   -0.90009E-05    67   0.392E-02    0.614E-03
RMM:   6    -0.986519899443E+02   -0.12579E-05   -0.21765E-05    50   0.184E-02
     58 T=   419. E= -.98593855E+02 F= -.98651990E+02 E0= -.98653923E+02  EK= 0.81186E+00 SP= -.77E+00 SK= 0.17E-01
       N       E                     dE             d eps       ncg     rms          rms(c)
RMM:   1    -0.987755075863E+02   -0.12352E+00   -0.10337E-01    72   0.192E+00    0.114E-01
RMM:   2    -0.987761492462E+02   -0.64166E-03   -0.75502E-03    74   0.403E-01    0.818E-02
RMM:   3    -0.987762648953E+02   -0.11565E-03   -0.16267E-03    72   0.160E-01    0.343E-02
RMM:   4    -0.987762898467E+02   -0.24951E-04   -0.31718E-04    77   0.678E-02    0.163E-02
RMM:   5    -0.987762909370E+02   -0.10902E-05   -0.38275E-05    56   0.257E-02    0.495E-03
RMM:   6    -0.987762917156E+02   -0.77863E-06   -0.70545E-06    46   0.123E-02
     59 T=   492. E= -.98603208E+02 F= -.98776292E+02 E0= -.98778224E+02  EK= 0.95412E+00 SP= -.80E+00 SK= 0.19E-01
       N       E                     dE             d eps       ncg     rms          rms(c)
RMM:   1    -0.987813922371E+02   -0.51013E-02   -0.13969E-01    72   0.230E+00    0.117E-01
RMM:   2    -0.987821374705E+02   -0.74523E-03   -0.84468E-03    72   0.452E-01    0.832E-02
RMM:   3    -0.987822924297E+02   -0.15496E-03   -0.20213E-03    75   0.173E-01    0.439E-02
RMM:   4    -0.987823020900E+02   -0.96602E-05   -0.25074E-04    72   0.716E-02    0.133E-02
RMM:   5    -0.987823096287E+02   -0.75388E-05   -0.70481E-05    64   0.323E-02    0.623E-03
RMM:   6    -0.987823125830E+02   -0.29543E-05   -0.10379E-05    47   0.145E-02
     60 T=   512. E= -.98600873E+02 F= -.98782313E+02 E0= -.98784245E+02  EK= 0.99304E+00 SP= -.83E+00 SK= 0.17E-01
       N       E                     dE             d eps       ncg     rms          rms(c)
RMM:   1    -0.986999506958E+02    0.82359E-01   -0.15250E-01    72   0.212E+00    0.134E-01
RMM:   2    -0.987005984713E+02   -0.64778E-03   -0.90906E-03    72   0.477E-01    0.910E-02
RMM:   3    -0.987007173944E+02   -0.11892E-03   -0.23381E-03    74   0.182E-01    0.380E-02
RMM:   4    -0.987007269520E+02   -0.95576E-05   -0.32261E-04    78   0.732E-02    0.167E-02
RMM:   5    -0.987007270910E+02   -0.13902E-06   -0.42878E-05    59   0.280E-02    0.497E-03
RMM:   6    -0.987007288891E+02   -0.17981E-05   -0.10288E-05    48   0.137E-02
     61 T=   489. E= -.98593892E+02 F= -.98700729E+02 E0= -.98702662E+02  EK= 0.94757E+00 SP= -.86E+00 SK= 0.17E-01
       N       E                     dE             d eps       ncg     rms          rms(c)
RMM:   1    -0.986357407990E+02    0.64986E-01   -0.13031E-01    72   0.215E+00    0.920E-02
RMM:   2    -0.986365681965E+02   -0.82740E-03   -0.83386E-03    74   0.450E-01    0.641E-02
RMM:   3    -0.986367358855E+02   -0.16769E-03   -0.15805E-03    72   0.164E-01    0.286E-02
RMM:   4    -0.986367660403E+02   -0.30155E-04   -0.25998E-04    76   0.685E-02    0.816E-03
RMM:   5    -0.986367696255E+02   -0.35852E-05   -0.45958E-05    56   0.268E-02    0.421E-03
RMM:   6    -0.986367716436E+02   -0.20181E-05   -0.79398E-06    46   0.129E-02
     62 T=   472. E= -.98590237E+02 F= -.98636772E+02 E0= -.98638704E+02  EK= 0.91491E+00 SP= -.89E+00 SK= 0.18E-01
       N       E                     dE             d eps       ncg     rms          rms(c)
RMM:   1    -0.986478246461E+02   -0.11055E-01   -0.72139E-02    72   0.168E+00    0.663E-02
RMM:   2    -0.986482946740E+02   -0.47003E-03   -0.47986E-03    72   0.361E-01    0.451E-02
RMM:   3    -0.986484302550E+02   -0.13558E-03   -0.12506E-03    76   0.137E-01    0.218E-02
RMM:   4    -0.986484536695E+02   -0.23415E-04   -0.17201E-04    70   0.561E-02    0.808E-03
RMM:   5    -0.986484616773E+02   -0.80078E-05   -0.40934E-05    54   0.240E-02    0.441E-03
RMM:   6    -0.986484672665E+02   -0.55892E-05   -0.57852E-06    47   0.112E-02
     63 T=   492. E= -.98591218E+02 F= -.98648467E+02 E0= -.98650400E+02  EK= 0.95413E+00 SP= -.92E+00 SK= 0.19E-01
       N       E                     dE             d eps       ncg     rms          rms(c)
RMM:   1    -0.987187109076E+02   -0.70249E-01   -0.63742E-02    72   0.148E+00    0.683E-02
RMM:   2    -0.987193053956E+02   -0.59449E-03   -0.64288E-03    74   0.337E-01    0.459E-02
RMM:   3    -0.987193997636E+02   -0.94368E-04   -0.10118E-03    74   0.127E-01    0.197E-02
RMM:   4    -0.987194247378E+02   -0.24974E-04   -0.20877E-04    70   0.544E-02    0.925E-03
RMM:   5    -0.987194296020E+02   -0.48641E-05   -0.26007E-05    54   0.220E-02    0.351E-03
RMM:   6    -0.987194317996E+02   -0.21976E-05   -0.69102E-06    48   0.119E-02
     64 T=   542. E= -.98595839E+02 F= -.98719432E+02 E0= -.98721365E+02  EK= 0.10513E+01 SP= -.95E+00 SK= 0.18E-01
       N       E                     dE             d eps       ncg     rms          rms(c)
RMM:   1    -0.987790903293E+02   -0.59661E-01   -0.10708E-01    72   0.187E+00    0.921E-02
RMM:   2    -0.987802395315E+02   -0.11492E-02   -0.12383E-02    75   0.426E-01    0.631E-02
RMM:   3    -0.987804147965E+02   -0.17527E-03   -0.20593E-03    75   0.167E-01    0.340E-02
RMM:   4    -0.987804471782E+02   -0.32382E-04   -0.28747E-04    74   0.706E-02    0.119E-02
RMM:   5    -0.987804547759E+02   -0.75977E-05   -0.56176E-05    59   0.296E-02    0.587E-03
RMM:   6    -0.987804591419E+02   -0.43659E-05   -0.14045E-05    50   0.152E-02
     65 T=   587. E= -.98601179E+02 F= -.98780459E+02 E0= -.98782392E+02  EK= 0.11384E+01 SP= -.97E+00 SK= 0.14E-01
       N       E                     dE             d eps       ncg     rms          rms(c)
RMM:   1    -0.987642681337E+02    0.16187E-01   -0.16122E-01    72   0.241E+00    0.123E-01
RMM:   2    -0.987652396349E+02   -0.97150E-03   -0.11147E-02    74   0.529E-01    0.856E-02
RMM:   3    -0.987654402325E+02   -0.20060E-03   -0.26523E-03    74   0.204E-01    0.392E-02
RMM:   4    -0.987654673573E+02   -0.27125E-04   -0.32833E-04    75   0.828E-02    0.164E-02
RMM:   5    -0.987654762519E+02   -0.88946E-05   -0.79039E-05    65   0.353E-02    0.593E-03
RMM:   6    -0.987654792017E+02   -0.29499E-05   -0.10645E-05    47   0.154E-02
     66 T=   594. E= -.98600459E+02 F= -.98765479E+02 E0= -.98767413E+02  EK= 0.11520E+01 SP= -.10E+01 SK= 0.86E-02
       N       E                     dE             d eps       ncg     rms          rms(c)
RMM:   1    -0.987003430464E+02    0.65133E-01   -0.27568E-01    72   0.289E+00    0.189E-01
RMM:   2    -0.987024636240E+02   -0.21206E-02   -0.26124E-02    74   0.675E-01    0.129E-01
RMM:   3    -0.987027254988E+02   -0.26187E-03   -0.44020E-03    75   0.266E-01    0.425E-02
RMM:   4    -0.987027697950E+02   -0.44296E-04   -0.66700E-04    78   0.102E-01    0.195E-02
RMM:   5    -0.987027804655E+02   -0.10671E-04   -0.11817E-04    67   0.428E-02    0.637E-03
RMM:   6    -0.987027843059E+02   -0.38404E-05   -0.16692E-05    51   0.176E-02
     67 T=   577. E= -.98592052E+02 F= -.98702784E+02 E0= -.98704720E+02  EK= 0.11191E+01 SP= -.10E+01 SK= 0.52E-02
       N       E                     dE             d eps       ncg     rms          rms(c)
RMM:   1    -0.987091629518E+02   -0.63825E-02   -0.32964E-01    72   0.320E+00    0.237E-01
RMM:   2    -0.987115426389E+02   -0.23797E-02   -0.30930E-02    76   0.735E-01    0.151E-01
RMM:   3    -0.987119030922E+02   -0.36045E-03   -0.53752E-03    74   0.309E-01    0.425E-02
RMM:   4    -0.987119657203E+02   -0.62628E-04   -0.98162E-04    77   0.131E-01    0.249E-02
RMM:   5    -0.987119846280E+02   -0.18908E-04   -0.17940E-04    77   0.524E-02    0.819E-03
RMM:   6    -0.987119880127E+02   -0.33847E-05   -0.16541E-05    49   0.176E-02
     68 T=   591. E= -.98590451E+02 F= -.98711988E+02 E0= -.98713929E+02  EK= 0.11461E+01 SP= -.10E+01 SK= 0.29E-02
       N       E                     dE             d eps       ncg     rms          rms(c)
RMM:   1    -0.988086012190E+02   -0.96617E-01   -0.23609E-01    72   0.296E+00    0.213E-01
RMM:   2    -0.988096810669E+02   -0.10798E-02   -0.14502E-02    73   0.602E-01    0.141E-01
RMM:   3    -0.988100792274E+02   -0.39816E-03   -0.46233E-03    77   0.268E-01    0.405E-02
RMM:   4    -0.988100877357E+02   -0.85083E-05   -0.49571E-04    74   0.100E-01    0.249E-02
RMM:   5    -0.988100995736E+02   -0.11838E-04   -0.11660E-04    72   0.501E-02    0.626E-03
RMM:   6    -0.988101025185E+02   -0.29448E-05   -0.19470E-05    51   0.194E-02
     69 T=   642. E= -.98600886E+02 F= -.98810103E+02 E0= -.98812054E+02  EK= 0.12449E+01 SP= -.10E+01 SK= 0.75E-03
       N       E                     dE             d eps       ncg     rms          rms(c)
RMM:   1    -0.988544746137E+02   -0.44375E-01   -0.20421E-01    72   0.300E+00    0.174E-01
RMM:   2    -0.988554028804E+02   -0.92827E-03   -0.10425E-02    71   0.533E-01    0.119E-01
RMM:   3    -0.988557159494E+02   -0.31307E-03   -0.30532E-03    77   0.228E-01    0.365E-02
RMM:   4    -0.988557545442E+02   -0.38595E-04   -0.44150E-04    77   0.874E-02    0.184E-02
RMM:   5    -0.988557596536E+02   -0.51094E-05   -0.68210E-05    66   0.380E-02    0.676E-03
RMM:   6    -0.988557612391E+02   -0.15856E-05   -0.11211E-05    48   0.155E-02
     70 T=   665. E= -.98605431E+02 F= -.98855761E+02 E0= -.98857725E+02  EK= 0.12885E+01 SP= -.10E+01 SK= 0.11E-03
       N       E                     dE             d eps       ncg     rms          rms(c)
RMM:   1    -0.987781666477E+02    0.77593E-01   -0.21493E-01    72   0.302E+00    0.150E-01
RMM:   2    -0.987791177357E+02   -0.95109E-03   -0.10570E-02    72   0.540E-01    0.105E-01
RMM:   3    -0.987793227272E+02   -0.20499E-03   -0.24967E-03    75   0.212E-01    0.442E-02
RMM:   4    -0.987793671623E+02   -0.44435E-04   -0.48204E-04    78   0.885E-02    0.172E-02
RMM:   5    -0.987793720665E+02   -0.49042E-05   -0.66294E-05    66   0.338E-02    0.673E-03
RMM:   6    -0.987793741282E+02   -0.20617E-05   -0.12843E-05    49   0.161E-02
     71 T=   624. E= -.98599005E+02 F= -.98779374E+02 E0= -.98781339E+02  EK= 0.12103E+01 SP= -.10E+01 SK= 0.21E-02
       N       E                     dE             d eps       ncg     rms          rms(c)
RMM:   1    -0.986622337732E+02    0.11714E+00   -0.19107E-01    72   0.264E+00    0.153E-01
RMM:   2    -0.986627603104E+02   -0.52654E-03   -0.72882E-03    72   0.514E-01    0.100E-01
RMM:   3    -0.986628595436E+02   -0.99233E-04   -0.14719E-03    72   0.194E-01    0.249E-02
RMM:   4    -0.986628815921E+02   -0.22048E-04   -0.34917E-04    77   0.734E-02    0.156E-02
RMM:   5    -0.986628814526E+02    0.13949E-06   -0.36255E-05    55   0.310E-02    0.584E-03
RMM:   6    -0.986628814954E+02   -0.42878E-07   -0.84441E-06    47   0.131E-02
     72 T=   560. E= -.98592039E+02 F= -.98662881E+02 E0= -.98664833E+02  EK= 0.10859E+01 SP= -.10E+01 SK= 0.45E-02
       N       E                     dE             d eps       ncg     rms          rms(c)
RMM:   1    -0.986055588917E+02    0.57323E-01   -0.17384E-01    72   0.262E+00    0.116E-01
RMM:   2    -0.986063389999E+02   -0.78011E-03   -0.78430E-03    72   0.493E-01    0.776E-02
RMM:   3    -0.986065498488E+02   -0.21085E-03   -0.17922E-03    75   0.184E-01    0.325E-02
RMM:   4    -0.986065858387E+02   -0.35990E-04   -0.36616E-04    73   0.736E-02    0.706E-03
RMM:   5    -0.986065904438E+02   -0.46051E-05   -0.47000E-05    60   0.319E-02    0.510E-03
RMM:   6    -0.986065923137E+02   -0.18699E-05   -0.82736E-06    47   0.132E-02
     73 T=   523. E= -.98590534E+02 F= -.98606592E+02 E0= -.98608532E+02  EK= 0.10142E+01 SP= -.10E+01 SK= 0.58E-02
       N       E                     dE             d eps       ncg     rms          rms(c)
RMM:   1    -0.986364863767E+02   -0.29896E-01   -0.81403E-02    72   0.182E+00    0.743E-02
RMM:   2    -0.986369190996E+02   -0.43272E-03   -0.43947E-03    72   0.363E-01    0.496E-02
RMM:   3    -0.986370152408E+02   -0.96141E-04   -0.85196E-04    73   0.133E-01    0.287E-02
RMM:   4    -0.986370435069E+02   -0.28266E-04   -0.22297E-04    70   0.592E-02    0.549E-03
RMM:   5    -0.986370494259E+02   -0.59190E-05   -0.37490E-05    54   0.263E-02    0.427E-03
RMM:   6    -0.986370525087E+02   -0.30828E-05   -0.56244E-06    47   0.108E-02
     74 T=   528. E= -.98593983E+02 F= -.98637053E+02 E0= -.98638987E+02  EK= 0.10231E+01 SP= -.99E+00 SK= 0.67E-02
       N       E                     dE             d eps       ncg     rms          rms(c)
RMM:   1    -0.987035299329E+02   -0.66481E-01   -0.52741E-02    72   0.136E+00    0.638E-02
RMM:   2    -0.987039261398E+02   -0.39621E-03   -0.41687E-03    73   0.302E-01    0.418E-02
RMM:   3    -0.987040175814E+02   -0.91442E-04   -0.95817E-04    76   0.114E-01    0.236E-02
RMM:   4    -0.987040292707E+02   -0.11689E-04   -0.11127E-04    69   0.466E-02    0.662E-03
RMM:   5    -0.987040342159E+02   -0.49452E-05   -0.35482E-05    53   0.217E-02    0.454E-03
RMM:   6    -0.987040368934E+02   -0.26775E-05   -0.46290E-06    47   0.100E-02
     75 T=   549. E= -.98599720E+02 F= -.98704037E+02 E0= -.98705970E+02  EK= 0.10637E+01 SP= -.97E+00 SK= 0.84E-02
       N       E                     dE             d eps       ncg     rms          rms(c)
RMM:   1    -0.987210730128E+02   -0.17039E-01   -0.65191E-02    72   0.144E+00    0.785E-02
RMM:   2    -0.987215381262E+02   -0.46511E-03   -0.52061E-03    74   0.341E-01    0.508E-02
RMM:   3    -0.987216430069E+02   -0.10488E-03   -0.12320E-03    75   0.133E-01    0.256E-02
RMM:   4    -0.987216613090E+02   -0.18302E-04   -0.15165E-04    71   0.533E-02    0.101E-02
RMM:   5    -0.987216692875E+02   -0.79785E-05   -0.40783E-05    52   0.241E-02    0.474E-03
RMM:   6    -0.987216735214E+02   -0.42340E-05   -0.87490E-06    47   0.114E-02
     76 T=   544. E= -.98602383E+02 F= -.98721674E+02 E0= -.98723606E+02  EK= 0.10545E+01 SP= -.95E+00 SK= 0.11E-01
       N       E                     dE             d eps       ncg     rms          rms(c)
RMM:   1    -0.986540893230E+02    0.67580E-01   -0.10961E-01    72   0.184E+00    0.110E-01
RMM:   2    -0.986546023211E+02   -0.51300E-03   -0.68676E-03    72   0.451E-01    0.727E-02
RMM:   3    -0.986546952498E+02   -0.92929E-04   -0.16432E-03    75   0.171E-01    0.293E-02
RMM:   4    -0.986547144928E+02   -0.19243E-04   -0.26207E-04    73   0.702E-02    0.154E-02
RMM:   5    -0.986547203145E+02   -0.58218E-05   -0.54909E-05    63   0.319E-02    0.528E-03
RMM:   6    -0.986547233645E+02   -0.30500E-05   -0.13862E-05    49   0.157E-02
     77 T=   499. E= -.98596818E+02 F= -.98654723E+02 E0= -.98656656E+02  EK= 0.96769E+00 SP= -.92E+00 SK= 0.13E-01
       N       E                     dE             d eps       ncg     rms          rms(c)
RMM:   1    -0.985918378869E+02    0.62882E-01   -0.17207E-01    72   0.225E+00    0.164E-01
RMM:   2    -0.985924050327E+02   -0.56715E-03   -0.10112E-02    73   0.541E-01    0.113E-01
RMM:   3    -0.985923989100E+02    0.61227E-05   -0.20508E-03    71   0.210E-01    0.294E-02
RMM:   4    -0.985924229681E+02   -0.24058E-04   -0.46096E-04    76   0.860E-02    0.207E-02
RMM:   5    -0.985924262297E+02   -0.32616E-05   -0.67263E-05    67   0.367E-02    0.501E-03
RMM:   6    -0.985924288202E+02   -0.25905E-05   -0.14587E-05    49   0.169E-02
     78 T=   459. E= -.98588443E+02 F= -.98592429E+02 E0= -.98594361E+02  EK= 0.89064E+00 SP= -.90E+00 SK= 0.12E-01
       N       E                     dE             d eps       ncg     rms          rms(c)
RMM:   1    -0.986548043524E+02   -0.62378E-01   -0.13250E-01    72   0.198E+00    0.172E-01
RMM:   2    -0.986552706814E+02   -0.46633E-03   -0.93769E-03    75   0.458E-01    0.111E-01
RMM:   3    -0.986552797511E+02   -0.90697E-05   -0.17562E-03    72   0.185E-01    0.394E-02
RMM:   4    -0.986553031804E+02   -0.23429E-04   -0.41837E-04    80   0.818E-02    0.213E-02
RMM:   5    -0.986553020365E+02    0.11440E-05   -0.43480E-05    62   0.302E-02    0.544E-03
RMM:   6    -0.986553031769E+02   -0.11404E-05   -0.10138E-05    48   0.143E-02
     79 T=   479. E= -.98591967E+02 F= -.98655303E+02 E0= -.98657236E+02  EK= 0.92884E+00 SP= -.88E+00 SK= 0.10E-01
       N       E                     dE             d eps       ncg     rms          rms(c)
RMM:   1    -0.987931063281E+02   -0.13780E+00   -0.82574E-02    72   0.169E+00    0.134E-01
RMM:   2    -0.987933212322E+02   -0.21490E-03   -0.49044E-03    72   0.357E-01    0.861E-02
RMM:   3    -0.987933885968E+02   -0.67365E-04   -0.13125E-03    73   0.148E-01    0.317E-02
RMM:   4    -0.987933959401E+02   -0.73433E-05   -0.20593E-04    75   0.616E-02    0.153E-02
RMM:   5    -0.987934024827E+02   -0.65426E-05   -0.49894E-05    59   0.305E-02    0.435E-03
RMM:   6    -0.987934037555E+02   -0.12728E-05   -0.83673E-06    47   0.120E-02
     80 T=   533. E= -.98602846E+02 F= -.98793404E+02 E0= -.98795336E+02  EK= 0.10331E+01 SP= -.85E+00 SK= 0.11E-01
       N       E                     dE             d eps       ncg     rms          rms(c)
RMM:   1    -0.988478712515E+02   -0.54469E-01   -0.11630E-01    72   0.213E+00    0.113E-01
RMM:   2    -0.988485919072E+02   -0.72066E-03   -0.80443E-03    75   0.426E-01    0.791E-02
RMM:   3    -0.988487433572E+02   -0.15145E-03   -0.17346E-03    76   0.165E-01    0.413E-02
RMM:   4    -0.988487682351E+02   -0.24878E-04   -0.26507E-04    74   0.702E-02    0.104E-02
RMM:   5    -0.988487773579E+02   -0.91228E-05   -0.73061E-05    62   0.331E-02    0.590E-03
RMM:   6    -0.988487782972E+02   -0.93926E-06   -0.67210E-06    48   0.120E-02
     81 T=   547. E= -.98603626E+02 F= -.98848778E+02 E0= -.98850711E+02  EK= 0.10608E+01 SP= -.83E+00 SK= 0.14E-01
       N       E                     dE             d eps       ncg     rms          rms(c)
RMM:   1    -0.987905758598E+02    0.58201E-01   -0.15808E-01    72   0.237E+00    0.122E-01
RMM:   2    -0.987914673278E+02   -0.89147E-03   -0.10277E-02    73   0.504E-01    0.843E-02
RMM:   3    -0.987916140082E+02   -0.14668E-03   -0.20300E-03    75   0.186E-01    0.439E-02
RMM:   4    -0.987916354556E+02   -0.21447E-04   -0.33202E-04    72   0.789E-02    0.108E-02
RMM:   5    -0.987916465138E+02   -0.11058E-04   -0.97463E-05    65   0.374E-02    0.667E-03
RMM:   6    -0.987916483951E+02   -0.18813E-05   -0.96451E-06    47   0.151E-02
     82 T=   507. E= -.98596182E+02 F= -.98791648E+02 E0= -.98793581E+02  EK= 0.98253E+00 SP= -.80E+00 SK= 0.16E-01
       N       E                     dE             d eps       ncg     rms          rms(c)
RMM:   1    -0.987171367245E+02    0.74510E-01   -0.14488E-01    72   0.215E+00    0.115E-01
RMM:   2    -0.987178832184E+02   -0.74649E-03   -0.86020E-03    72   0.487E-01    0.726E-02
RMM:   3    -0.987181529135E+02   -0.26970E-03   -0.26772E-03    78   0.193E-01    0.286E-02
RMM:   4    -0.987181756213E+02   -0.22708E-04   -0.27724E-04    73   0.691E-02    0.102E-02
RMM:   5    -0.987181840323E+02   -0.84110E-05   -0.80963E-05    60   0.330E-02    0.376E-03
RMM:   6    -0.987181854327E+02   -0.14004E-05   -0.88877E-06    48   0.144E-02
     83 T=   458. E= -.98590477E+02 F= -.98718185E+02 E0= -.98720118E+02  EK= 0.88855E+00 SP= -.78E+00 SK= 0.15E-01
       N       E                     dE             d eps       ncg     rms          rms(c)
RMM:   1    -0.987128888463E+02    0.52952E-02   -0.89999E-02    72   0.189E+00    0.729E-02
RMM:   2    -0.987134912691E+02   -0.60242E-03   -0.59077E-03    74   0.395E-01    0.503E-02
RMM:   3    -0.987136323902E+02   -0.14112E-03   -0.11708E-03    74   0.147E-01    0.247E-02
RMM:   4    -0.987136591134E+02   -0.26723E-04   -0.18540E-04    74   0.617E-02    0.535E-03
RMM:   5    -0.987136629753E+02   -0.38619E-05   -0.33723E-05    55   0.266E-02    0.355E-03
RMM:   6    -0.987136648237E+02   -0.18484E-05   -0.53825E-06    46   0.114E-02
     84 T=   444. E= -.98590338E+02 F= -.98713665E+02 E0= -.98715597E+02  EK= 0.86132E+00 SP= -.75E+00 SK= 0.12E-01
       N       E                     dE             d eps       ncg     rms          rms(c)
RMM:   1    -0.987838383786E+02   -0.70175E-01   -0.58557E-02    72   0.145E+00    0.595E-02
RMM:   2    -0.987845593691E+02   -0.72099E-03   -0.75386E-03    74   0.333E-01    0.353E-02
RMM:   3    -0.987847149095E+02   -0.15554E-03   -0.15046E-03    76   0.133E-01    0.256E-02
RMM:   4    -0.987847311182E+02   -0.16209E-04   -0.14678E-04    69   0.509E-02    0.127E-02
RMM:   5    -0.987847424508E+02   -0.11333E-04   -0.48005E-05    59   0.274E-02    0.461E-03
RMM:   6    -0.987847441001E+02   -0.16493E-05   -0.10087E-05    48   0.132E-02
     85 T=   468. E= -.98594726E+02 F= -.98784744E+02 E0= -.98786677E+02  EK= 0.90682E+00 SP= -.73E+00 SK= 0.10E-01
       N       E                     dE             d eps       ncg     rms          rms(c)
RMM:   1    -0.988653291665E+02   -0.80587E-01   -0.54968E-02    72   0.142E+00    0.656E-02
RMM:   2    -0.988659652641E+02   -0.63610E-03   -0.69472E-03    75   0.327E-01    0.421E-02
RMM:   3    -0.988660816870E+02   -0.11642E-03   -0.11950E-03    76   0.130E-01    0.295E-02
RMM:   4    -0.988660955959E+02   -0.13909E-04   -0.13900E-04    69   0.508E-02    0.976E-03
RMM:   5    -0.988661029908E+02   -0.73950E-05   -0.51609E-05    56   0.267E-02    0.325E-03
RMM:   6    -0.988661040640E+02   -0.10731E-05   -0.56085E-06    47   0.103E-02
     86 T=   496. E= -.98600212E+02 F= -.98866104E+02 E0= -.98868037E+02  EK= 0.96114E+00 SP= -.71E+00 SK= 0.99E-02
       N       E                     dE             d eps       ncg     rms          rms(c)
RMM:   1    -0.988747256704E+02   -0.86227E-02   -0.76362E-02    72   0.164E+00    0.860E-02
RMM:   2    -0.988752640126E+02   -0.53834E-03   -0.66709E-03    74   0.376E-01    0.537E-02
RMM:   3    -0.988754423652E+02   -0.17835E-03   -0.19189E-03    78   0.156E-01    0.345E-02
RMM:   4    -0.988754551355E+02   -0.12770E-04   -0.14981E-04    70   0.535E-02    0.113E-02
RMM:   5    -0.988754604631E+02   -0.53276E-05   -0.35449E-05    56   0.263E-02    0.284E-03
RMM:   6    -0.988754623531E+02   -0.18900E-05   -0.88870E-06    48   0.125E-02
     87 T=   489. E= -.98600999E+02 F= -.98875462E+02 E0= -.98877395E+02  EK= 0.94745E+00 SP= -.68E+00 SK= 0.10E-01
       N       E                     dE             d eps       ncg     rms          rms(c)
RMM:   1    -0.988036870252E+02    0.71773E-01   -0.11793E-01    72   0.190E+00    0.117E-01
RMM:   2    -0.988042006789E+02   -0.51365E-03   -0.74066E-03    72   0.472E-01    0.781E-02
RMM:   3    -0.988042959176E+02   -0.95239E-04   -0.17936E-03    74   0.178E-01    0.327E-02
RMM:   4    -0.988043200934E+02   -0.24176E-04   -0.35239E-04    76   0.753E-02    0.147E-02
RMM:   5    -0.988043236722E+02   -0.35788E-05   -0.51075E-05    60   0.296E-02    0.545E-03
RMM:   6    -0.988043253356E+02   -0.16634E-05   -0.93112E-06    48   0.142E-02
     88 T=   445. E= -.98593856E+02 F= -.98804325E+02 E0= -.98806258E+02  EK= 0.86287E+00 SP= -.66E+00 SK= 0.92E-02
       N       E                     dE             d eps       ncg     rms          rms(c)
RMM:   1    -0.987582859138E+02    0.46038E-01   -0.17197E-01    72   0.237E+00    0.147E-01
RMM:   2    -0.987589301169E+02   -0.64420E-03   -0.10017E-02    72   0.560E-01    0.100E-01
RMM:   3    -0.987590249931E+02   -0.94876E-04   -0.23285E-03    74   0.215E-01    0.393E-02
RMM:   4    -0.987590586983E+02   -0.33705E-04   -0.48795E-04    75   0.893E-02    0.194E-02
RMM:   5    -0.987590626642E+02   -0.39659E-05   -0.57316E-05    65   0.359E-02    0.547E-03
RMM:   6    -0.987590653417E+02   -0.26775E-05   -0.14014E-05    48   0.173E-02
     89 T=   416. E= -.98587457E+02 F= -.98759065E+02 E0= -.98760998E+02  EK= 0.80744E+00 SP= -.64E+00 SK= 0.65E-02
       N       E                     dE             d eps       ncg     rms          rms(c)
RMM:   1    -0.988316923382E+02   -0.72630E-01   -0.12054E-01    72   0.201E+00    0.143E-01
RMM:   2    -0.988321452054E+02   -0.45287E-03   -0.81002E-03    73   0.450E-01    0.927E-02
RMM:   3    -0.988322568894E+02   -0.11168E-03   -0.20776E-03    75   0.187E-01    0.408E-02
RMM:   4    -0.988322794643E+02   -0.22575E-04   -0.35890E-04    76   0.736E-02    0.189E-02
RMM:   5    -0.988322822668E+02   -0.28024E-05   -0.58931E-05    61   0.324E-02    0.445E-03
RMM:   6    -0.988322835548E+02   -0.12880E-05   -0.87354E-06    47   0.144E-02
     90 T=   444. E= -.98592820E+02 F= -.98832284E+02 E0= -.98834216E+02  EK= 0.86173E+00 SP= -.63E+00 SK= 0.42E-02
       N       E                     dE             d eps       ncg     rms          rms(c)
RMM:   1    -0.989497533645E+02   -0.11747E+00   -0.58043E-02    72   0.140E+00    0.101E-01
RMM:   2    -0.989499640122E+02   -0.21065E-03   -0.37640E-03    73   0.311E-01    0.655E-02
RMM:   3    -0.989500166413E+02   -0.52629E-04   -0.96898E-04    74   0.128E-01    0.289E-02
RMM:   4    -0.989500266789E+02   -0.10038E-04   -0.16763E-04    79   0.550E-02    0.124E-02
RMM:   5    -0.989500292845E+02   -0.26056E-05   -0.24044E-05    54   0.214E-02    0.362E-03
RMM:   6    -0.989500304405E+02   -0.11560E-05   -0.44067E-06    47   0.920E-03
     91 T=   494. E= -.98601109E+02 F= -.98950030E+02 E0= -.98951963E+02  EK= 0.95812E+00 SP= -.61E+00 SK= 0.36E-02
       N       E                     dE             d eps       ncg     rms          rms(c)
RMM:   1    -0.989877739208E+02   -0.37745E-01   -0.75595E-02    72   0.164E+00    0.105E-01
RMM:   2    -0.989880968558E+02   -0.32294E-03   -0.44175E-03    73   0.358E-01    0.689E-02
RMM:   3    -0.989881621846E+02   -0.65329E-04   -0.11071E-03    77   0.140E-01    0.301E-02
RMM:   4    -0.989881658401E+02   -0.36555E-05   -0.14197E-04    73   0.557E-02    0.950E-03
RMM:   5    -0.989881697487E+02   -0.39086E-05   -0.35999E-05    58   0.255E-02    0.394E-03
RMM:   6    -0.989881712958E+02   -0.15471E-05   -0.63977E-06    47   0.116E-02
     92 T=   507. E= -.98600064E+02 F= -.98988171E+02 E0= -.98990104E+02  EK= 0.98331E+00 SP= -.60E+00 SK= 0.41E-02
       N       E                     dE             d eps       ncg     rms          rms(c)
RMM:   1    -0.989480198282E+02    0.40150E-01   -0.10816E-01    72   0.183E+00    0.121E-01
RMM:   2    -0.989484774796E+02   -0.45765E-03   -0.65455E-03    74   0.431E-01    0.799E-02
RMM:   3    -0.989485407143E+02   -0.63235E-04   -0.14988E-03    76   0.162E-01    0.342E-02
RMM:   4    -0.989485429744E+02   -0.22602E-05   -0.19275E-04    74   0.634E-02    0.111E-02
RMM:   5    -0.989485467129E+02   -0.37385E-05   -0.44610E-05    61   0.285E-02    0.431E-03
RMM:   6    -0.989485484953E+02   -0.17823E-05   -0.78387E-06    47   0.132E-02
     93 T=   483. E= -.98593978E+02 F= -.98948548E+02 E0= -.98950481E+02  EK= 0.93561E+00 SP= -.59E+00 SK= 0.42E-02
       N       E                     dE             d eps       ncg     rms          rms(c)
RMM:   1    -0.989149652178E+02    0.33581E-01   -0.70285E-02    72   0.151E+00    0.765E-02
RMM:   2    -0.989153329724E+02   -0.36775E-03   -0.42536E-03    72   0.362E-01    0.525E-02
RMM:   3    -0.989154077992E+02   -0.74827E-04   -0.99003E-04    76   0.132E-01    0.230E-02
RMM:   4    -0.989154148988E+02   -0.70996E-05   -0.11986E-04    72   0.504E-02    0.106E-02
RMM:   5    -0.989154161028E+02   -0.12040E-05   -0.23692E-05    52   0.219E-02    0.351E-03
RMM:   6    -0.989154169463E+02   -0.84347E-06   -0.41745E-06    47   0.994E-03
     94 T=   461. E= -.98590120E+02 F= -.98915417E+02 E0= -.98917350E+02  EK= 0.89358E+00 SP= -.57E+00 SK= 0.34E-02
       N       E                     dE             d eps       ncg     rms          rms(c)
RMM:   1    -0.989458082882E+02   -0.30392E-01   -0.39019E-02    72   0.116E+00    0.542E-02
RMM:   2    -0.989461817449E+02   -0.37346E-03   -0.38475E-03    74   0.285E-01    0.349E-02
RMM:   3    -0.989462631809E+02   -0.81436E-04   -0.81147E-04    77   0.110E-01    0.190E-02
RMM:   4    -0.989462749391E+02   -0.11758E-04   -0.11725E-04    68   0.449E-02    0.694E-03
RMM:   5    -0.989462777874E+02   -0.28483E-05   -0.16634E-05    51   0.184E-02    0.356E-03
RMM:   6    -0.989462801913E+02   -0.24039E-05   -0.38736E-06    47   0.925E-03
     95 T=   471. E= -.98591141E+02 F= -.98946280E+02 E0= -.98948213E+02  EK= 0.91228E+00 SP= -.56E+00 SK= 0.26E-02
       N       E                     dE             d eps       ncg     rms          rms(c)
RMM:   1    -0.990247896118E+02   -0.78512E-01   -0.36344E-02    72   0.107E+00    0.490E-02
RMM:   2    -0.990252268750E+02   -0.43726E-03   -0.44724E-03    75   0.268E-01    0.327E-02
RMM:   3    -0.990252969012E+02   -0.70026E-04   -0.72727E-04    76   0.102E-01    0.210E-02
RMM:   4    -0.990253084697E+02   -0.11569E-04   -0.12340E-04    70   0.460E-02    0.695E-03
RMM:   5    -0.990253121452E+02   -0.36754E-05   -0.27789E-05    51   0.187E-02    0.404E-03
RMM:   6    -0.990253141809E+02   -0.20357E-05   -0.37617E-06    46   0.893E-03
     96 T=   503. E= -.98596268E+02 F= -.99025314E+02 E0= -.99027247E+02  EK= 0.97547E+00 SP= -.55E+00 SK= 0.24E-02
       N       E                     dE             d eps       ncg     rms          rms(c)
RMM:   1    -0.990755358492E+02   -0.50224E-01   -0.61852E-02    72   0.141E+00    0.665E-02
RMM:   2    -0.990761863720E+02   -0.65052E-03   -0.68712E-03    75   0.331E-01    0.460E-02
RMM:   3    -0.990763075726E+02   -0.12120E-03   -0.13438E-03    76   0.134E-01    0.351E-02
RMM:   4    -0.990763174330E+02   -0.98605E-05   -0.19675E-04    71   0.600E-02    0.107E-02
RMM:   5    -0.990763239973E+02   -0.65643E-05   -0.49327E-05    59   0.278E-02    0.598E-03
RMM:   6    -0.990763258696E+02   -0.18723E-05   -0.78221E-06    48   0.117E-02
     97 T=   521. E= -.98601214E+02 F= -.99076326E+02 E0= -.99078259E+02  EK= 0.10097E+01 SP= -.54E+00 SK= 0.29E-02
       N       E                     dE             d eps       ncg     rms          rms(c)
RMM:   1    -0.990286084202E+02    0.47716E-01   -0.97794E-02    72   0.182E+00    0.100E-01
RMM:   2    -0.990293391560E+02   -0.73074E-03   -0.85479E-03    74   0.420E-01    0.681E-02
RMM:   3    -0.990294970576E+02   -0.15790E-03   -0.19607E-03    76   0.169E-01    0.444E-02
RMM:   4    -0.990295042798E+02   -0.72222E-05   -0.22906E-04    70   0.685E-02    0.102E-02
RMM:   5    -0.990295135067E+02   -0.92269E-05   -0.82184E-05    67   0.359E-02    0.557E-03
RMM:   6    -0.990295160881E+02   -0.25814E-05   -0.10847E-05    49   0.143E-02
     98 T=   491. E= -.98599699E+02 F= -.99029516E+02 E0= -.99031449E+02  EK= 0.95144E+00 SP= -.53E+00 SK= 0.35E-02
       N       E                     dE             d eps       ncg     rms          rms(c)
RMM:   1    -0.989107309126E+02    0.11878E+00   -0.14138E-01    72   0.207E+00    0.137E-01
RMM:   2    -0.989112615795E+02   -0.53067E-03   -0.82221E-03    72   0.502E-01    0.931E-02
RMM:   3    -0.989113395715E+02   -0.77992E-04   -0.20081E-03    76   0.192E-01    0.350E-02
RMM:   4    -0.989113461167E+02   -0.65452E-05   -0.22301E-04    73   0.676E-02    0.165E-02
RMM:   5    -0.989113489892E+02   -0.28726E-05   -0.53093E-05    64   0.337E-02    0.458E-03
RMM:   6    -0.989113509664E+02   -0.19772E-05   -0.11638E-05    47   0.154E-02
     99 T=   428. E= -.98591668E+02 F= -.98911351E+02 E0= -.98913284E+02  EK= 0.82995E+00 SP= -.51E+00 SK= 0.27E-02
       N       E                     dE             d eps       ncg     rms          rms(c)
RMM:   1    -0.988393256865E+02    0.72023E-01   -0.19864E-01    72   0.248E+00    0.162E-01
RMM:   2    -0.988402313405E+02   -0.90565E-03   -0.13219E-02    75   0.562E-01    0.110E-01
RMM:   3    -0.988403289652E+02   -0.97625E-04   -0.23848E-03    73   0.216E-01    0.443E-02
RMM:   4    -0.988403586663E+02   -0.29701E-04   -0.46428E-04    76   0.925E-02    0.190E-02
RMM:   5    -0.988403637330E+02   -0.50667E-05   -0.88114E-05    64   0.376E-02    0.590E-03
RMM:   6    -0.988403653994E+02   -0.16664E-05   -0.16619E-05    49   0.160E-02
    100 T=   390. E= -.98587920E+02 F= -.98840365E+02 E0= -.98842298E+02  EK= 0.75530E+00 SP= -.50E+00 SK= 0.99E-03
       N       E                     dE             d eps       ncg     rms          rms(c)
RMM:   1    -0.988697144976E+02   -0.29351E-01   -0.14089E-01    72   0.200E+00    0.149E-01
RMM:   2    -0.988707175842E+02   -0.10031E-02   -0.13254E-02    75   0.468E-01    0.974E-02
RMM:   3    -0.988708813063E+02   -0.16372E-03   -0.26638E-03    76   0.194E-01    0.417E-02
RMM:   4    -0.988709000354E+02   -0.18729E-04   -0.32928E-04    73   0.758E-02    0.205E-02
RMM:   5    -0.988709077154E+02   -0.76800E-05   -0.77921E-05    63   0.355E-02    0.494E-03
RMM:   6    -0.988709110617E+02   -0.33463E-05   -0.18400E-05    52   0.167E-02
    101 T=   400. E= -.98594647E+02 F= -.98870911E+02 E0= -.98872844E+02  EK= 0.77569E+00 SP= -.50E+00 SK= 0.70E-04
       N       E                     dE             d eps       ncg     rms          rms(c)
RMM:   1    -0.989072720662E+02   -0.36364E-01   -0.88813E-02    72   0.154E+00    0.117E-01
RMM:   2    -0.989082375623E+02   -0.96550E-03   -0.11273E-02    76   0.391E-01    0.712E-02
RMM:   3    -0.989083628200E+02   -0.12526E-03   -0.16899E-03    73   0.158E-01    0.255E-02
RMM:   4    -0.989083899409E+02   -0.27121E-04   -0.29251E-04    76   0.681E-02    0.117E-02
RMM:   5    -0.989083974021E+02   -0.74612E-05   -0.60527E-05    61   0.291E-02    0.477E-03
[...]
RMM:   4    -0.985983990939E+02   -0.20482E-04   -0.27779E-04    77   0.702E-02    0.139E-02
RMM:   5    -0.985984021242E+02   -0.30303E-05   -0.40359E-05    62   0.281E-02    0.536E-03
RMM:   6    -0.985984036573E+02   -0.15331E-05   -0.80587E-06    48   0.134E-02
    274 T=   572. E= -.98602166E+02 F= -.98598404E+02 E0= -.98600336E+02  EK= 0.11096E+01 SP= -.11E+01 SK= 0.17E-01
       N       E                     dE             d eps       ncg     rms          rms(c)
RMM:   1    -0.984661554147E+02    0.13225E+00   -0.12754E-01    72   0.195E+00    0.122E-01
RMM:   2    -0.984668542697E+02   -0.69886E-03   -0.88393E-03    73   0.477E-01    0.816E-02
RMM:   3    -0.984670364300E+02   -0.18216E-03   -0.25029E-03    75   0.195E-01    0.293E-02
RMM:   4    -0.984670700357E+02   -0.33606E-04   -0.45870E-04    81   0.809E-02    0.186E-02
RMM:   5    -0.984670697780E+02    0.25768E-06   -0.42841E-05    58   0.290E-02    0.565E-03
RMM:   6    -0.984670702989E+02   -0.52087E-06   -0.68110E-06    48   0.128E-02
    275 T=   522. E= -.98597455E+02 F= -.98467070E+02 E0= -.98469003E+02  EK= 0.10126E+01 SP= -.12E+01 SK= 0.14E-01
       N       E                     dE             d eps       ncg     rms          rms(c)
RMM:   1    -0.983963463971E+02    0.70723E-01   -0.10108E-01    72   0.185E+00    0.107E-01
RMM:   2    -0.983968188891E+02   -0.47249E-03   -0.60615E-03    72   0.425E-01    0.719E-02
RMM:   3    -0.983969285016E+02   -0.10961E-03   -0.15888E-03    74   0.167E-01    0.221E-02
RMM:   4    -0.983969495899E+02   -0.21088E-04   -0.28190E-04    76   0.666E-02    0.153E-02
RMM:   5    -0.983969529724E+02   -0.33825E-05   -0.47298E-05    63   0.292E-02    0.459E-03
RMM:   6    -0.983969546733E+02   -0.17009E-05   -0.77542E-06    48   0.125E-02
    276 T=   500. E= -.98596191E+02 F= -.98396955E+02 E0= -.98398887E+02  EK= 0.96967E+00 SP= -.12E+01 SK= 0.13E-01
       N       E                     dE             d eps       ncg     rms          rms(c)
RMM:   1    -0.984033603770E+02   -0.64074E-02   -0.76707E-02    72   0.168E+00    0.893E-02
RMM:   2    -0.984037958973E+02   -0.43552E-03   -0.52770E-03    73   0.377E-01    0.567E-02
RMM:   3    -0.984039179969E+02   -0.12210E-03   -0.14330E-03    77   0.151E-01    0.259E-02
RMM:   4    -0.984039376603E+02   -0.19663E-04   -0.20712E-04    73   0.576E-02    0.126E-02
RMM:   5    -0.984039458435E+02   -0.81832E-05   -0.44222E-05    59   0.276E-02    0.388E-03
RMM:   6    -0.984039501027E+02   -0.42592E-05   -0.77537E-06    47   0.132E-02
    277 T=   514. E= -.98601229E+02 F= -.98403950E+02 E0= -.98405883E+02  EK= 0.99696E+00 SP= -.12E+01 SK= 0.13E-01
       N       E                     dE             d eps       ncg     rms          rms(c)
RMM:   1    -0.984176747489E+02   -0.13729E-01   -0.80798E-02    72   0.166E+00    0.859E-02
RMM:   2    -0.984182071933E+02   -0.53244E-03   -0.61292E-03    72   0.381E-01    0.538E-02
RMM:   3    -0.984183533288E+02   -0.14614E-03   -0.15685E-03    77   0.150E-01    0.279E-02
RMM:   4    -0.984183711379E+02   -0.17809E-04   -0.20424E-04    71   0.605E-02    0.115E-02
RMM:   5    -0.984183783728E+02   -0.72349E-05   -0.52873E-05    60   0.279E-02    0.474E-03
RMM:   6    -0.984183818147E+02   -0.34419E-05   -0.90839E-06    49   0.129E-02
    278 T=   532. E= -.98606266E+02 F= -.98418382E+02 E0= -.98420314E+02  EK= 0.10318E+01 SP= -.12E+01 SK= 0.11E-01
       N       E                     dE             d eps       ncg     rms          rms(c)
RMM:   1    -0.983789012826E+02    0.39477E-01   -0.14905E-01    72   0.212E+00    0.142E-01
RMM:   2    -0.983795370307E+02   -0.63575E-03   -0.10039E-02    72   0.502E-01    0.947E-02
RMM:   3    -0.983796843877E+02   -0.14736E-03   -0.25652E-03    74   0.202E-01    0.410E-02
RMM:   4    -0.983797144560E+02   -0.30068E-04   -0.42724E-04    77   0.808E-02    0.206E-02
RMM:   5    -0.983797187030E+02   -0.42470E-05   -0.52573E-05    59   0.327E-02    0.591E-03
RMM:   6    -0.983797210096E+02   -0.23066E-05   -0.13631E-05    50   0.164E-02
    279 T=   526. E= -.98603620E+02 F= -.98379721E+02 E0= -.98381654E+02  EK= 0.10195E+01 SP= -.13E+01 SK= 0.91E-02
       N       E                     dE             d eps       ncg     rms          rms(c)
RMM:   1    -0.983249476759E+02    0.54771E-01   -0.19806E-01    72   0.244E+00    0.183E-01
RMM:   2    -0.983255522705E+02   -0.60459E-03   -0.12057E-02    72   0.568E-01    0.122E-01
RMM:   3    -0.983256615892E+02   -0.10932E-03   -0.30972E-03    72   0.230E-01    0.441E-02
RMM:   4    -0.983257001283E+02   -0.38539E-04   -0.61443E-04    75   0.949E-02    0.259E-02
RMM:   5    -0.983257049897E+02   -0.48614E-05   -0.85744E-05    69   0.426E-02    0.719E-03
RMM:   6    -0.983257078539E+02   -0.28642E-05   -0.19915E-05    49   0.195E-02
    280 T=   509. E= -.98602884E+02 F= -.98325708E+02 E0= -.98327640E+02  EK= 0.98756E+00 SP= -.13E+01 SK= 0.80E-02
       N       E                     dE             d eps       ncg     rms          rms(c)
RMM:   1    -0.982743122694E+02    0.51393E-01   -0.12895E-01    72   0.203E+00    0.110E-01
RMM:   2    -0.982749807955E+02   -0.66853E-03   -0.81357E-03    72   0.491E-01    0.787E-02
RMM:   3    -0.982751152948E+02   -0.13450E-03   -0.19780E-03    74   0.187E-01    0.262E-02
RMM:   4    -0.982751446221E+02   -0.29327E-04   -0.36806E-04    76   0.767E-02    0.146E-02
RMM:   5    -0.982751472396E+02   -0.26176E-05   -0.52232E-05    60   0.309E-02    0.466E-03
RMM:   6    -0.982751490715E+02   -0.18319E-05   -0.10793E-05    48   0.140E-02
    281 T=   492. E= -.98605246E+02 F= -.98275149E+02 E0= -.98277082E+02  EK= 0.95442E+00 SP= -.13E+01 SK= 0.76E-02
       N       E                     dE             d eps       ncg     rms          rms(c)
RMM:   1    -0.982100776973E+02    0.65070E-01   -0.22216E-01    72   0.260E+00    0.187E-01
RMM:   2    -0.982108398887E+02   -0.76219E-03   -0.14275E-02    72   0.593E-01    0.122E-01
RMM:   3    -0.982110644434E+02   -0.22455E-03   -0.37625E-03    74   0.236E-01    0.600E-02
RMM:   4    -0.982110972034E+02   -0.32760E-04   -0.59951E-04    74   0.991E-02    0.214E-02
RMM:   5    -0.982111056270E+02   -0.84235E-05   -0.10758E-04    66   0.420E-02    0.767E-03
RMM:   6    -0.982111086352E+02   -0.30082E-05   -0.26143E-05    50   0.187E-02
    282 T=   471. E= -.98602000E+02 F= -.98211109E+02 E0= -.98213041E+02  EK= 0.91251E+00 SP= -.13E+01 SK= 0.79E-02
       N       E                     dE             d eps       ncg     rms          rms(c)
RMM:   1    -0.981672359590E+02    0.43870E-01   -0.19307E-01    72   0.242E+00    0.181E-01
RMM:   2    -0.981677569529E+02   -0.52099E-03   -0.11159E-02    72   0.525E-01    0.114E-01
RMM:   3    -0.981678913912E+02   -0.13444E-03   -0.26291E-03    72   0.209E-01    0.515E-02
RMM:   4    -0.981679327695E+02   -0.41378E-04   -0.62261E-04    75   0.915E-02    0.209E-02
RMM:   5    -0.981679352525E+02   -0.24830E-05   -0.83649E-05    67   0.403E-02    0.641E-03
RMM:   6    -0.981679349628E+02    0.28974E-06   -0.14109E-05    48   0.169E-02
    283 T=   457. E= -.98603415E+02 F= -.98167935E+02 E0= -.98169868E+02  EK= 0.88687E+00 SP= -.13E+01 SK= 0.91E-02
       N       E                     dE             d eps       ncg     rms          rms(c)
RMM:   1    -0.981245492831E+02    0.43386E-01   -0.10309E-01    72   0.180E+00    0.974E-02
RMM:   2    -0.981251465037E+02   -0.59722E-03   -0.67631E-03    74   0.415E-01    0.660E-02
RMM:   3    -0.981252996560E+02   -0.15315E-03   -0.16925E-03    76   0.162E-01    0.242E-02
RMM:   4    -0.981253159987E+02   -0.16343E-04   -0.22065E-04    76   0.635E-02    0.983E-03
RMM:   5    -0.981253200706E+02   -0.40720E-05   -0.32181E-05    56   0.252E-02    0.380E-03
RMM:   6    -0.981253224905E+02   -0.24198E-05   -0.52894E-06    47   0.112E-02
    284 T=   444. E= -.98606033E+02 F= -.98125322E+02 E0= -.98127255E+02  EK= 0.86172E+00 SP= -.14E+01 SK= 0.11E-01
       N       E                     dE             d eps       ncg     rms          rms(c)
RMM:   1    -0.980440605002E+02    0.81260E-01   -0.11708E-01    72   0.204E+00    0.118E-01
RMM:   2    -0.980444625666E+02   -0.40207E-03   -0.55660E-03    72   0.424E-01    0.812E-02
RMM:   3    -0.980445261321E+02   -0.63566E-04   -0.10782E-03    72   0.160E-01    0.306E-02
RMM:   4    -0.980445453959E+02   -0.19264E-04   -0.26405E-04    75   0.657E-02    0.154E-02
RMM:   5    -0.980445475979E+02   -0.22020E-05   -0.35121E-05    58   0.290E-02    0.538E-03
RMM:   6    -0.980445489097E+02   -0.13119E-05   -0.75903E-06    47   0.127E-02
    285 T=   415. E= -.98603716E+02 F= -.98044549E+02 E0= -.98046482E+02  EK= 0.80446E+00 SP= -.14E+01 SK= 0.14E-01
       N       E                     dE             d eps       ncg     rms          rms(c)
RMM:   1    -0.979563958725E+02    0.88152E-01   -0.10237E-01    72   0.182E+00    0.106E-01
RMM:   2    -0.979567725702E+02   -0.37670E-03   -0.55238E-03    72   0.414E-01    0.732E-02
RMM:   3    -0.979568587378E+02   -0.86168E-04   -0.13860E-03    73   0.160E-01    0.300E-02
RMM:   4    -0.979568698362E+02   -0.11098E-04   -0.20949E-04    74   0.614E-02    0.165E-02
RMM:   5    -0.979568723833E+02   -0.25472E-05   -0.33022E-05    56   0.285E-02    0.405E-03
RMM:   6    -0.979568736903E+02   -0.13070E-05   -0.64358E-06    47   0.119E-02
    286 T=   383. E= -.98599524E+02 F= -.97956874E+02 E0= -.97958806E+02  EK= 0.74340E+00 SP= -.14E+01 SK= 0.19E-01
       N       E                     dE             d eps       ncg     rms          rms(c)
RMM:   1    -0.979215574278E+02    0.35315E-01   -0.84109E-02    72   0.170E+00    0.873E-02
RMM:   2    -0.979219542267E+02   -0.39680E-03   -0.49198E-03    72   0.397E-01    0.610E-02
RMM:   3    -0.979220459149E+02   -0.91688E-04   -0.12532E-03    74   0.153E-01    0.249E-02
RMM:   4    -0.979220617705E+02   -0.15856E-04   -0.20282E-04    75   0.604E-02    0.140E-02
RMM:   5    -0.979220636370E+02   -0.18666E-05   -0.30510E-05    56   0.256E-02    0.414E-03
RMM:   6    -0.979220644540E+02   -0.81700E-06   -0.57808E-06    47   0.120E-02
    287 T=   379. E= -.98599111E+02 F= -.97922064E+02 E0= -.97923997E+02  EK= 0.73409E+00 SP= -.14E+01 SK= 0.27E-01
       N       E                     dE             d eps       ncg     rms          rms(c)
RMM:   1    -0.979445148333E+02   -0.22451E-01   -0.82203E-02    72   0.184E+00    0.808E-02
RMM:   2    -0.979449339797E+02   -0.41915E-03   -0.46930E-03    72   0.396E-01    0.555E-02
RMM:   3    -0.979450130782E+02   -0.79099E-04   -0.88948E-04    73   0.150E-01    0.350E-02
RMM:   4    -0.979450361637E+02   -0.23086E-04   -0.22455E-04    74   0.670E-02    0.103E-02
RMM:   5    -0.979450413125E+02   -0.51487E-05   -0.40208E-05    59   0.278E-02    0.684E-03
RMM:   6    -0.979450437731E+02   -0.24607E-05   -0.78915E-06    47   0.123E-02
    288 T=   403. E= -.98604084E+02 F= -.97945044E+02 E0= -.97946976E+02  EK= 0.78232E+00 SP= -.15E+01 SK= 0.35E-01
       N       E                     dE             d eps       ncg     rms          rms(c)
RMM:   1    -0.979632053207E+02   -0.18164E-01   -0.10315E-01    72   0.201E+00    0.962E-02
RMM:   2    -0.979636791553E+02   -0.47383E-03   -0.56749E-03    72   0.439E-01    0.626E-02
RMM:   3    -0.979637908801E+02   -0.11172E-03   -0.11585E-03    74   0.164E-01    0.410E-02
RMM:   4    -0.979638085569E+02   -0.17677E-04   -0.19702E-04    72   0.696E-02    0.836E-03
RMM:   5    -0.979638135843E+02   -0.50274E-05   -0.44349E-05    58   0.298E-02    0.565E-03
RMM:   6    -0.979638153540E+02   -0.17697E-05   -0.10349E-05    48   0.148E-02
    289 T=   431. E= -.98606400E+02 F= -.97963815E+02 E0= -.97965748E+02  EK= 0.83513E+00 SP= -.15E+01 SK= 0.41E-01
       N       E                     dE             d eps       ncg     rms          rms(c)
RMM:   1    -0.979641081549E+02   -0.29457E-03   -0.19778E-01    72   0.254E+00    0.168E-01
RMM:   2    -0.979645797666E+02   -0.47161E-03   -0.10128E-02    72   0.582E-01    0.110E-01
RMM:   3    -0.979646670161E+02   -0.87249E-04   -0.20392E-03    71   0.218E-01    0.505E-02
RMM:   4    -0.979647054455E+02   -0.38429E-04   -0.48818E-04    77   0.958E-02    0.170E-02
RMM:   5    -0.979647150764E+02   -0.96309E-05   -0.89578E-05    64   0.426E-02    0.564E-03
RMM:   6    -0.979647171481E+02   -0.20717E-05   -0.13452E-05    49   0.174E-02
    290 T=   455. E= -.98601402E+02 F= -.97964717E+02 E0= -.97966650E+02  EK= 0.88189E+00 SP= -.16E+01 SK= 0.45E-01
       N       E                     dE             d eps       ncg     rms          rms(c)
RMM:   1    -0.980164817785E+02   -0.51767E-01   -0.24011E-01    72   0.295E+00    0.191E-01
RMM:   2    -0.980171981974E+02   -0.71642E-03   -0.12697E-02    72   0.618E-01    0.126E-01
RMM:   3    -0.980173333102E+02   -0.13511E-03   -0.28872E-03    73   0.242E-01    0.485E-02
RMM:   4    -0.980173622611E+02   -0.28951E-04   -0.48994E-04    73   0.993E-02    0.246E-02
RMM:   5    -0.980173707005E+02   -0.84394E-05   -0.11511E-04    71   0.449E-02    0.770E-03
RMM:   6    -0.980173726740E+02   -0.19735E-05   -0.22208E-05    51   0.203E-02
    291 T=   504. E= -.98604280E+02 F= -.98017373E+02 E0= -.98019305E+02  EK= 0.97702E+00 SP= -.16E+01 SK= 0.47E-01
       N       E                     dE             d eps       ncg     rms          rms(c)
RMM:   1    -0.980904722858E+02   -0.73102E-01   -0.13700E-01    72   0.220E+00    0.124E-01
RMM:   2    -0.980911092104E+02   -0.63692E-03   -0.83208E-03    72   0.492E-01    0.850E-02
RMM:   3    -0.980912744523E+02   -0.16524E-03   -0.21763E-03    76   0.194E-01    0.354E-02
RMM:   4    -0.980912893340E+02   -0.14882E-04   -0.27540E-04    74   0.708E-02    0.143E-02
RMM:   5    -0.980912947856E+02   -0.54516E-05   -0.60948E-05    63   0.335E-02    0.530E-03
RMM:   6    -0.980912969640E+02   -0.21784E-05   -0.10147E-05    47   0.146E-02
    292 T=   565. E= -.98609498E+02 F= -.98091297E+02 E0= -.98093230E+02  EK= 0.10962E+01 SP= -.17E+01 SK= 0.42E-01
       N       E                     dE             d eps       ncg     rms          rms(c)
RMM:   1    -0.981253554219E+02   -0.34061E-01   -0.21832E-01    72   0.265E+00    0.214E-01
RMM:   2    -0.981257452901E+02   -0.38987E-03   -0.12249E-02    72   0.591E-01    0.134E-01
RMM:   3    -0.981258687568E+02   -0.12347E-03   -0.30809E-03    73   0.237E-01    0.559E-02
RMM:   4    -0.981258958704E+02   -0.27114E-04   -0.54274E-04    73   0.945E-02    0.195E-02
RMM:   5    -0.981259104024E+02   -0.14532E-04   -0.15215E-04    71   0.463E-02    0.758E-03
RMM:   6    -0.981259117961E+02   -0.13937E-05   -0.17246E-05    49   0.191E-02
    293 T=   611. E= -.98606729E+02 F= -.98125912E+02 E0= -.98127844E+02  EK= 0.11848E+01 SP= -.17E+01 SK= 0.34E-01
       N       E                     dE             d eps       ncg     rms          rms(c)
RMM:   1    -0.981471332651E+02   -0.21223E-01   -0.18896E-01    72   0.252E+00    0.189E-01
RMM:   2    -0.981475601586E+02   -0.42689E-03   -0.10701E-02    72   0.554E-01    0.120E-01
RMM:   3    -0.981477209640E+02   -0.16081E-03   -0.28744E-03    75   0.222E-01    0.524E-02
RMM:   4    -0.981477484542E+02   -0.27490E-04   -0.43175E-04    71   0.865E-02    0.181E-02
RMM:   5    -0.981477621365E+02   -0.13682E-04   -0.13186E-04    73   0.442E-02    0.709E-03
RMM:   6    -0.981477637376E+02   -0.16011E-05   -0.15326E-05    49   0.174E-02
    294 T=   645. E= -.98608989E+02 F= -.98147764E+02 E0= -.98149696E+02  EK= 0.12514E+01 SP= -.17E+01 SK= 0.23E-01
       N       E                     dE             d eps       ncg     rms          rms(c)
RMM:   1    -0.981367434019E+02    0.11019E-01   -0.14460E-01    72   0.234E+00    0.125E-01
RMM:   2    -0.981376448019E+02   -0.90140E-03   -0.10285E-02    74   0.513E-01    0.857E-02
RMM:   3    -0.981378728075E+02   -0.22801E-03   -0.25906E-03    75   0.198E-01    0.346E-02
RMM:   4    -0.981378921197E+02   -0.19312E-04   -0.31144E-04    75   0.795E-02    0.128E-02
RMM:   5    -0.981378989936E+02   -0.68739E-05   -0.73919E-05    64   0.346E-02    0.557E-03
RMM:   6    -0.981379012598E+02   -0.22663E-05   -0.13846E-05    50   0.158E-02
    295 T=   659. E= -.98610997E+02 F= -.98137901E+02 E0= -.98139834E+02  EK= 0.12787E+01 SP= -.18E+01 SK= 0.13E-01
       N       E                     dE             d eps       ncg     rms          rms(c)
RMM:   1    -0.980774358735E+02    0.60463E-01   -0.16418E-01    72   0.238E+00    0.156E-01
RMM:   2    -0.980781513650E+02   -0.71549E-03   -0.10362E-02    72   0.510E-01    0.102E-01
RMM:   3    -0.980783150115E+02   -0.16365E-03   -0.26313E-03    73   0.209E-01    0.338E-02
RMM:   4    -0.980783595355E+02   -0.44524E-04   -0.61429E-04    78   0.921E-02    0.179E-02
RMM:   5    -0.980783652453E+02   -0.57098E-05   -0.81702E-05    64   0.367E-02    0.519E-03
RMM:   6    -0.980783683477E+02   -0.31025E-05   -0.17789E-05    51   0.168E-02
    296 T=   645. E= -.98607730E+02 F= -.98078368E+02 E0= -.98080301E+02  EK= 0.12508E+01 SP= -.18E+01 SK= 0.63E-02
       N       E                     dE             d eps       ncg     rms          rms(c)
RMM:   1    -0.980207110374E+02    0.57654E-01   -0.16203E-01    72   0.226E+00    0.135E-01
RMM:   2    -0.980218425885E+02   -0.11316E-02   -0.13235E-02    75   0.524E-01    0.910E-02
RMM:   3    -0.980220247833E+02   -0.18219E-03   -0.27393E-03    75   0.204E-01    0.400E-02
RMM:   4    -0.980220544112E+02   -0.29628E-04   -0.42332E-04    76   0.857E-02    0.149E-02
RMM:   5    -0.980220586127E+02   -0.42016E-05   -0.82600E-05    69   0.365E-02    0.709E-03
RMM:   6    -0.980220601135E+02   -0.15008E-05   -0.11019E-05    47   0.156E-02
    297 T=   627. E= -.98603771E+02 F= -.98022060E+02 E0= -.98023993E+02  EK= 0.12164E+01 SP= -.18E+01 SK= 0.23E-02
       N       E                     dE             d eps       ncg     rms          rms(c)
RMM:   1    -0.980236571300E+02   -0.15985E-02   -0.16663E-01    72   0.248E+00    0.118E-01
RMM:   2    -0.980252207522E+02   -0.15636E-02   -0.16971E-02    73   0.551E-01    0.832E-02
RMM:   3    -0.980254593116E+02   -0.23856E-03   -0.28775E-03    75   0.209E-01    0.641E-02
RMM:   4    -0.980254766328E+02   -0.17321E-04   -0.58981E-04    70   0.107E-01    0.140E-02
RMM:   5    -0.980254857801E+02   -0.91473E-05   -0.13957E-04    73   0.503E-02    0.119E-02
RMM:   6    -0.980254871062E+02   -0.13260E-05   -0.28055E-05    52   0.220E-02
    298 T=   633. E= -.98605887E+02 F= -.98025487E+02 E0= -.98027420E+02  EK= 0.12268E+01 SP= -.18E+01 SK= 0.33E-03
       N       E                     dE             d eps       ncg     rms          rms(c)
RMM:   1    -0.980555192281E+02   -0.30033E-01   -0.14231E-01    72   0.249E+00    0.109E-01
RMM:   2    -0.980562992725E+02   -0.78004E-03   -0.86335E-03    72   0.501E-01    0.714E-02
RMM:   3    -0.980564608836E+02   -0.16161E-03   -0.16820E-03    72   0.196E-01    0.493E-02
RMM:   4    -0.980565004452E+02   -0.39562E-04   -0.39783E-04    74   0.880E-02    0.135E-02
RMM:   5    -0.980565103779E+02   -0.99326E-05   -0.85679E-05    66   0.364E-02    0.847E-03
RMM:   6    -0.980565142519E+02   -0.38741E-05   -0.14166E-05    48   0.168E-02
    299 T=   646. E= -.98612222E+02 F= -.98056514E+02 E0= -.98058447E+02  EK= 0.12519E+01 SP= -.18E+01 SK= 0.23E-03
       N       E                     dE             d eps       ncg     rms          rms(c)
RMM:   1    -0.980331106669E+02    0.23400E-01   -0.17248E-01    72   0.258E+00    0.141E-01
RMM:   2    -0.980337909856E+02   -0.68032E-03   -0.91383E-03    72   0.544E-01    0.899E-02
RMM:   3    -0.980339917592E+02   -0.20077E-03   -0.23244E-03    75   0.210E-01    0.407E-02
RMM:   4    -0.980340204090E+02   -0.28650E-04   -0.31025E-04    75   0.829E-02    0.140E-02
RMM:   5    -0.980340278229E+02   -0.74139E-05   -0.62055E-05    62   0.350E-02    0.567E-03
RMM:   6    -0.980340314893E+02   -0.36665E-05   -0.12537E-05    48   0.164E-02
    300 T=   630. E= -.98610454E+02 F= -.98034031E+02 E0= -.98035964E+02  EK= 0.12219E+01 SP= -.18E+01 SK= 0.25E-02
