PROCAR lm decomposed
# of k-points:    1         # of bands:   36         # of ions:   16

 k-point     1 :    0.00000000 0.00000000 0.00000000     weight = 1.00000000

band     1 # energy  -29.17922638 # occ.  2.00000000
 
ion      s     py     pz     px    dxy    dyz    dz2    dxz  x2-y2    tot
    1  0.000  0.000  0.000  0.000  0.000  0.000  0.000  0.000  0.000  0.000
    2  0.001  0.000  0.000  0.000  0.000  0.000  0.000  0.000  0.000  0.001
    3  0.036  0.000  0.016  0.003  0.000  0.000  0.000  0.000  0.000  0.055
    4  0.003  0.000  0.001  0.000  0.000  0.000  0.000  0.000  0.000  0.004
    5  0.000  0.000  0.000  0.000  0.000  0.000  0.000  0.000  0.000  0.000
    6  0.000  0.000  0.000  0.000  0.000  0.000  0.000  0.000  0.000  0.000
    7  0.000  0.000  0.000  0.000  0.000  0.000  0.000  0.000  0.000  0.000
    8  0.790  0.001  0.013  0.003  0.000  0.000  0.000  0.000  0.000  0.807
    9  0.000  0.000  0.000  0.000  0.000  0.000  0.000  0.000  0.000  0.000
   10  0.000  0.000  0.000  0.000  0.000  0.000  0.000  0.000  0.000  0.000
   11  0.000  0.000  0.000  0.000  0.000  0.000  0.000  0.000  0.000  0.000
   12  0.001  0.000  0.000  0.000  0.000  0.000  0.000  0.000  0.000  0.001
   13  0.000  0.000  0.000  0.000  0.000  0.000  0.000  0.000  0.000  0.000
   14  0.000  0.000  0.000  0.000  0.000  0.000  0.000  0.000  0.000  0.000
   15  0.000  0.000  0.000  0.000  0.000  0.000  0.000  0.000  0.000  0.000
   16  0.005  0.001  0.000  0.000  0.000  0.000  0.000  0.000  0.000  0.006
tot    0.836  0.002  0.030  0.006  0.000  0.000  0.000  0.000  0.000  0.874
 
band     2 # energy  -26.27747164 # occ.  2.00000000
 
ion      s     py     pz     px    dxy    dyz    dz2    dxz  x2-y2    tot
    1  0.000  0.000  0.000  0.000  0.000  0.000  0.000  0.000  0.000  0.000
    2  0.000  0.000  0.000  0.000  0.000  0.000  0.000  0.000  0.000  0.000
    3  0.001  0.002  0.000  0.001  0.000  0.000  0.000  0.000  0.000  0.004
    4  0.085  0.006  0.025  0.003  0.000  0.000  0.000  0.000  0.000  0.120
    5  0.003  0.000  0.001  0.000  0.000  0.000  0.000  0.000  0.000  0.004
    6  0.000  0.000  0.000  0.000  0.000  0.000  0.000  0.000  0.000  0.000
    7  0.000  0.000  0.000  0.000  0.000  0.000  0.000  0.000  0.000  0.000
    8  0.014  0.000  0.000  0.000  0.000  0.000  0.000  0.000  0.000  0.014
    9  0.000  0.000  0.000  0.000  0.000  0.000  0.000  0.000  0.000  0.000
   10  0.000  0.000  0.000  0.000  0.000  0.000  0.000  0.000  0.000  0.000
   11  0.000  0.000  0.000  0.000  0.000  0.000  0.000  0.000  0.000  0.000
   12  0.078  0.005  0.012  0.000  0.000  0.000  0.000  0.000  0.000  0.095
   13  0.000  0.000  0.000  0.000  0.000  0.000  0.000  0.000  0.000  0.000
   14  0.000  0.000  0.000  0.000  0.000  0.000  0.000  0.000  0.000  0.000
   15  0.000  0.000  0.000  0.000  0.000  0.000  0.000  0.000  0.000  0.000
   16  0.638  0.031  0.002  0.007  0.000  0.000  0.000  0.000  0.000  0.678
tot    0.819  0.045  0.041  0.012  0.000  0.000  0.000  0.000  0.000  0.916
 
band     3 # energy  -21.22149674 # occ.  2.00000000
 
ion      s     py     pz     px    dxy    dyz    dz2    dxz  x2-y2    tot
    1  0.010  0.001  0.000  0.000  0.000  0.000  0.000  0.000  0.000  0.012
    2  0.133  0.013  0.000  0.000  0.000  0.000  0.000  0.000  0.000  0.146
    3  0.090  0.000  0.019  0.000  0.000  0.000  0.000  0.000  0.000  0.109
    4  0.055  0.004  0.015  0.002  0.000  0.000  0.000  0.000  0.000  0.076
    5  0.073  0.011  0.000  0.001  0.000  0.000  0.000  0.000  0.000  0.085
    6  0.096  0.002  0.006  0.000  0.000  0.000  0.000  0.000  0.000  0.104
    7  0.111  0.003  0.010  0.000  0.000  0.000  0.000  0.000  0.000  0.124
    8  0.010  0.000  0.002  0.000  0.000  0.000  0.000  0.000  0.000  0.012
    9  0.001  0.000  0.000  0.000  0.000  0.000  0.000  0.000  0.000  0.001
   10  0.001  0.000  0.000  0.000  0.000  0.000  0.000  0.000  0.000  0.001
   11  0.001  0.000  0.000  0.000  0.000  0.000  0.000  0.000  0.000  0.001
   12  0.005  0.000  0.001  0.000  0.000  0.000  0.000  0.000  0.000  0.006
   13  0.002  0.000  0.000  0.000  0.000  0.000  0.000  0.000  0.000  0.002
   14  0.006  0.000  0.001  0.000  0.000  0.000  0.000  0.000  0.000  0.007
   15  0.005  0.000  0.000  0.000  0.000  0.000  0.000  0.000  0.000  0.005
   16  0.017  0.000  0.003  0.000  0.000  0.000  0.000  0.000  0.000  0.020
tot    0.615  0.036  0.058  0.003  0.000  0.000  0.000  0.000  0.000  0.712
 
band     4 # energy  -18.78651199 # occ.  2.00000000
 
ion      s     py     pz     px    dxy    dyz    dz2    dxz  x2-y2    tot
    1  0.081  0.003  0.000  0.000  0.000  0.000  0.000  0.000  0.000  0.084
    2  0.150  0.000  0.000  0.001  0.000  0.000  0.000  0.000  0.000  0.151
    3  0.012  0.019  0.004  0.001  0.000  0.000  0.000  0.000  0.000  0.036
    4  0.066  0.003  0.020  0.000  0.000  0.000  0.000  0.000  0.000  0.089
    5  0.163  0.006  0.002  0.000  0.000  0.000  0.000  0.000  0.000  0.172
    6  0.043  0.010  0.004  0.001  0.000  0.000  0.000  0.000  0.000  0.058
    7  0.026  0.010  0.008  0.000  0.000  0.000  0.000  0.000  0.000  0.044
    8  0.002  0.000  0.001  0.000  0.000  0.000  0.000  0.000  0.000  0.004
    9  0.010  0.000  0.000  0.001  0.000  0.000  0.000  0.000  0.000  0.011
   10  0.009  0.001  0.000  0.000  0.000  0.000  0.000  0.000  0.000  0.010
   11  0.011  0.000  0.001  0.000  0.000  0.000  0.000  0.000  0.000  0.012
   12  0.009  0.001  0.001  0.000  0.000  0.000  0.000  0.000  0.000  0.010
   13  0.012  0.001  0.000  0.000  0.000  0.000  0.000  0.000  0.000  0.013
   14  0.005  0.000  0.001  0.000  0.000  0.000  0.000  0.000  0.000  0.006
   15  0.002  0.000  0.000  0.000  0.000  0.000  0.000  0.000  0.000  0.003
   16  0.011  0.001  0.013  0.000  0.000  0.000  0.000  0.000  0.000  0.025
tot    0.611  0.055  0.056  0.005  0.000  0.000  0.000  0.000  0.000  0.727
 
band     5 # energy  -17.70601481 # occ.  2.00000000
 
ion      s     py     pz     px    dxy    dyz    dz2    dxz  x2-y2    tot
    1  0.000  0.000  0.000  0.000  0.000  0.000  0.000  0.000  0.000  0.001
    2  0.005  0.002  0.028  0.000  0.000  0.000  0.000  0.000  0.000  0.035
    3  0.138  0.003  0.002  0.001  0.000  0.000  0.000  0.000  0.000  0.144
    4  0.089  0.011  0.000  0.002  0.000  0.000  0.000  0.000  0.000  0.102
    5  0.000  0.000  0.020  0.001  0.000  0.000  0.000  0.000  0.000  0.021
    6  0.162  0.008  0.003  0.000  0.000  0.000  0.000  0.000  0.000  0.172
    7  0.129  0.011  0.003  0.000  0.000  0.000  0.000  0.000  0.000  0.143
    8  0.017  0.001  0.016  0.003  0.000  0.000  0.000  0.000  0.000  0.037
    9  0.000  0.000  0.000  0.000  0.000  0.000  0.000  0.000  0.000  0.000
   10  0.000  0.000  0.000  0.000  0.000  0.000  0.000  0.000  0.000  0.000
   11  0.000  0.000  0.000  0.000  0.000  0.000  0.000  0.000  0.000  0.000
   12  0.011  0.001  0.001  0.000  0.000  0.000  0.000  0.000  0.000  0.013
   13  0.000  0.000  0.000  0.000  0.000  0.000  0.000  0.000  0.000  0.000
   14  0.033  0.001  0.004  0.000  0.000  0.000  0.000  0.000  0.000  0.038
   15  0.018  0.001  0.001  0.000  0.000  0.000  0.000  0.000  0.000  0.020
   16  0.020  0.000  0.018  0.001  0.000  0.000  0.000  0.000  0.000  0.039
tot    0.622  0.038  0.097  0.007  0.000  0.000  0.000  0.000  0.000  0.765
 
band     6 # energy  -16.65163451 # occ.  2.00000000
 
ion      s     py     pz     px    dxy    dyz    dz2    dxz  x2-y2    tot
    1  0.267  0.000  0.000  0.000  0.000  0.000  0.000  0.000  0.000  0.267
    2  0.001  0.047  0.000  0.005  0.000  0.000  0.000  0.000  0.000  0.053
    3  0.052  0.000  0.003  0.000  0.000  0.000  0.000  0.000  0.000  0.055
    4  0.006  0.026  0.007  0.001  0.000  0.000  0.000  0.000  0.000  0.040
    5  0.068  0.000  0.002  0.000  0.000  0.000  0.000  0.000  0.000  0.071
    6  0.000  0.015  0.001  0.001  0.000  0.000  0.000  0.000  0.000  0.017
    7  0.022  0.004  0.001  0.000  0.000  0.000  0.000  0.000  0.000  0.028
    8  0.004  0.001  0.005  0.002  0.000  0.000  0.000  0.000  0.000  0.012
    9  0.047  0.000  0.001  0.004  0.000  0.000  0.000  0.000  0.000  0.052
   10  0.048  0.002  0.002  0.002  0.000  0.000  0.000  0.000  0.000  0.053
   11  0.043  0.000  0.004  0.000  0.000  0.000  0.000  0.000  0.000  0.047
   12  0.005  0.000  0.000  0.000  0.000  0.000  0.000  0.000  0.000  0.005
   13  0.012  0.001  0.000  0.000  0.000  0.000  0.000  0.000  0.000  0.013
   14  0.000  0.000  0.000  0.000  0.000  0.000  0.000  0.000  0.000  0.000
   15  0.001  0.000  0.000  0.000  0.000  0.000  0.000  0.000  0.000  0.001
   16  0.000  0.002  0.012  0.000  0.000  0.000  0.000  0.000  0.000  0.014
tot    0.576  0.099  0.039  0.014  0.000  0.000  0.000  0.000  0.000  0.728
 
band     7 # energy  -14.76431444 # occ.  2.00000000
 
ion      s     py     pz     px    dxy    dyz    dz2    dxz  x2-y2    tot
    1  0.012  0.001  0.004  0.000  0.000  0.000  0.000  0.000  0.000  0.017
    2  0.003  0.000  0.056  0.000  0.000  0.000  0.000  0.000  0.000  0.059
    3  0.041  0.004  0.000  0.001  0.000  0.000  0.000  0.000  0.000  0.046
    4  0.047  0.032  0.001  0.005  0.000  0.000  0.000  0.000  0.000  0.085
    5  0.006  0.003  0.049  0.004  0.000  0.000  0.000  0.000  0.000  0.062
    6  0.060  0.030  0.000  0.001  0.000  0.000  0.000  0.000  0.000  0.090
    7  0.081  0.014  0.002  0.000  0.000  0.000  0.000  0.000  0.000  0.097
    8  0.010  0.000  0.026  0.006  0.000  0.000  0.000  0.000  0.000  0.042
    9  0.005  0.000  0.000  0.000  0.000  0.000  0.000  0.000  0.000  0.006
   10  0.007  0.000  0.000  0.000  0.000  0.000  0.000  0.000  0.000  0.007
   11  0.000  0.000  0.000  0.000  0.000  0.000  0.000  0.000  0.000  0.000
   12  0.057  0.004  0.003  0.000  0.000  0.000  0.000  0.000  0.000  0.065
   13  0.000  0.000  0.000  0.000  0.000  0.000  0.000  0.000  0.000  0.000
   14  0.025  0.000  0.003  0.000  0.000  0.000  0.000  0.000  0.000  0.028
   15  0.020  0.000  0.002  0.000  0.000  0.000  0.000  0.000  0.000  0.022
   16  0.002  0.004  0.164  0.002  0.000  0.000  0.000  0.000  0.000  0.171
tot    0.376  0.093  0.311  0.020  0.000  0.000  0.000  0.000  0.000  0.800
 
band     8 # energy  -14.27559882 # occ.  2.00000000
 
ion      s     py     pz     px    dxy    dyz    dz2    dxz  x2-y2    tot
    1  0.035  0.007  0.000  0.001  0.000  0.000  0.000  0.000  0.000  0.044
    2  0.082  0.010  0.003  0.000  0.000  0.000  0.000  0.000  0.000  0.096
    3  0.008  0.083  0.036  0.006  0.000  0.000  0.000  0.000  0.000  0.132
    4  0.038  0.039  0.033  0.001  0.000  0.000  0.000  0.000  0.000  0.111
    5  0.064  0.003  0.000  0.000  0.000  0.000  0.000  0.000  0.000  0.067
    6  0.019  0.016  0.018  0.002  0.000  0.000  0.000  0.000  0.000  0.054
    7  0.010  0.011  0.033  0.000  0.000  0.000  0.000  0.000  0.000  0.054
    8  0.006  0.019  0.013  0.011  0.000  0.000  0.000  0.000  0.000  0.048
    9  0.010  0.000  0.000  0.001  0.000  0.000  0.000  0.000  0.000  0.011
   10  0.011  0.000  0.000  0.000  0.000  0.000  0.000  0.000  0.000  0.012
   11  0.011  0.000  0.001  0.000  0.000  0.000  0.000  0.000  0.000  0.012
   12  0.005  0.002  0.000  0.000  0.000  0.000  0.000  0.000  0.000  0.007
   13  0.022  0.002  0.000  0.000  0.000  0.000  0.000  0.000  0.000  0.024
   14  0.015  0.001  0.001  0.000  0.000  0.000  0.000  0.000  0.000  0.017
   15  0.012  0.001  0.000  0.000  0.000  0.000  0.000  0.000  0.000  0.013
   16  0.017  0.015  0.021  0.004  0.000  0.000  0.000  0.000  0.000  0.057
tot    0.365  0.208  0.160  0.027  0.000  0.000  0.000  0.000  0.000  0.759
 
band     9 # energy  -13.26640834 # occ.  2.00000000
 
ion      s     py     pz     px    dxy    dyz    dz2    dxz  x2-y2    tot
    1  0.002  0.001  0.004  0.000  0.000  0.000  0.000  0.000  0.000  0.008
    2  0.004  0.000  0.050  0.000  0.000  0.000  0.000  0.000  0.000  0.054
    3  0.010  0.075  0.003  0.009  0.000  0.000  0.000  0.000  0.000  0.096
    4  0.004  0.048  0.036  0.014  0.000  0.000  0.000  0.000  0.000  0.102
    5  0.003  0.017  0.004  0.001  0.000  0.000  0.000  0.000  0.000  0.025
    6  0.023  0.000  0.035  0.001  0.000  0.000  0.000  0.000  0.000  0.059
    7  0.004  0.008  0.011  0.000  0.000  0.000  0.000  0.000  0.000  0.023
    8  0.005  0.011  0.073  0.003  0.000  0.000  0.000  0.000  0.000  0.093
    9  0.000  0.000  0.000  0.000  0.000  0.000  0.000  0.000  0.000  0.000
   10  0.000  0.000  0.000  0.000  0.000  0.000  0.000  0.000  0.000  0.000
   11  0.006  0.000  0.000  0.000  0.000  0.000  0.000  0.000  0.000  0.006
   12  0.066  0.003  0.003  0.000  0.000  0.000  0.000  0.000  0.000  0.073
   13  0.003  0.000  0.000  0.000  0.000  0.000  0.000  0.000  0.000  0.003
   14  0.042  0.001  0.004  0.000  0.000  0.000  0.000  0.000  0.000  0.046
   15  0.000  0.000  0.000  0.000  0.000  0.000  0.000  0.000  0.000  0.000
   16  0.003  0.011  0.189  0.000  0.000  0.000  0.000  0.000  0.000  0.204
tot    0.176  0.174  0.414  0.029  0.000  0.000  0.000  0.000  0.000  0.792
 
band    10 # energy  -12.19096918 # occ.  2.00000000
 
ion      s     py     pz     px    dxy    dyz    dz2    dxz  x2-y2    tot
    1  0.005  0.007  0.014  0.001  0.000  0.000  0.000  0.000  0.000  0.027
    2  0.000  0.016  0.027  0.002  0.000  0.000  0.000  0.000  0.000  0.046
    3  0.001  0.001  0.077  0.004  0.000  0.000  0.000  0.000  0.000  0.083
    4  0.004  0.000  0.000  0.003  0.000  0.000  0.000  0.000  0.000  0.007
    5  0.036  0.036  0.000  0.000  0.000  0.000  0.000  0.000  0.000  0.072
    6  0.017  0.010  0.001  0.000  0.000  0.000  0.000  0.000  0.000  0.028
    7  0.015  0.058  0.004  0.000  0.000  0.000  0.000  0.000  0.000  0.077
    8  0.013  0.021  0.159  0.051  0.000  0.000  0.000  0.000  0.000  0.244
    9  0.009  0.000  0.000  0.001  0.000  0.000  0.000  0.000  0.000  0.009
   10  0.012  0.000  0.000  0.001  0.000  0.000  0.000  0.000  0.000  0.013
   11  0.002  0.000  0.000  0.000  0.000  0.000  0.000  0.000  0.000  0.003
   12  0.008  0.000  0.000  0.000  0.000  0.000  0.000  0.000  0.000  0.009
   13  0.053  0.003  0.000  0.000  0.000  0.000  0.000  0.000  0.000  0.056
   14  0.001  0.000  0.000  0.000  0.000  0.000  0.000  0.000  0.000  0.001
   15  0.036  0.000  0.002  0.000  0.000  0.000  0.000  0.000  0.000  0.038
   16  0.002  0.001  0.024  0.001  0.000  0.000  0.000  0.000  0.000  0.028
tot    0.214  0.155  0.308  0.065  0.000  0.000  0.000  0.000  0.000  0.742
 
band    11 # energy  -11.31704750 # occ.  2.00000000
 
ion      s     py     pz     px    dxy    dyz    dz2    dxz  x2-y2    tot
    1  0.002  0.012  0.014  0.004  0.000  0.000  0.000  0.000  0.000  0.031
    2  0.030  0.004  0.016  0.000  0.000  0.000  0.000  0.000  0.000  0.050
    3  0.000  0.011  0.003  0.015  0.000  0.000  0.000  0.000  0.000  0.030
    4  0.000  0.017  0.080  0.002  0.000  0.000  0.000  0.000  0.000  0.100
    5  0.000  0.004  0.088  0.001  0.000  0.000  0.000  0.000  0.000  0.094
    6  0.006  0.099  0.006  0.001  0.000  0.000  0.000  0.000  0.000  0.113
    7  0.016  0.035  0.026  0.001  0.000  0.000  0.000  0.000  0.000  0.078
    8  0.002  0.007  0.090  0.000  0.000  0.000  0.000  0.000  0.000  0.100
    9  0.010  0.000  0.000  0.001  0.000  0.000  0.000  0.000  0.000  0.011
   10  0.010  0.000  0.000  0.001  0.000  0.000  0.000  0.000  0.000  0.011
   11  0.001  0.000  0.000  0.000  0.000  0.000  0.000  0.000  0.000  0.002
   12  0.003  0.002  0.000  0.000  0.000  0.000  0.000  0.000  0.000  0.005
   13  0.003  0.000  0.000  0.000  0.000  0.000  0.000  0.000  0.000  0.003
   14  0.033  0.000  0.004  0.000  0.000  0.000  0.000  0.000  0.000  0.037
   15  0.010  0.001  0.000  0.000  0.000  0.000  0.000  0.000  0.000  0.011
   16  0.006  0.037  0.038  0.006  0.000  0.000  0.000  0.000  0.000  0.087
tot    0.133  0.230  0.365  0.032  0.000  0.000  0.000  0.000  0.000  0.761
 
band    12 # energy  -10.70972784 # occ.  2.00000000
 
ion      s     py     pz     px    dxy    dyz    dz2    dxz  x2-y2    tot
    1  0.000  0.003  0.008  0.009  0.000  0.000  0.000  0.000  0.000  0.019
    2  0.000  0.001  0.033  0.026  0.000  0.000  0.000  0.000  0.000  0.060
    3  0.009  0.005  0.012  0.046  0.000  0.000  0.000  0.000  0.000  0.073
    4  0.003  0.007  0.006  0.009  0.000  0.000  0.000  0.000  0.000  0.025
    5  0.002  0.031  0.009  0.014  0.000  0.000  0.000  0.000  0.000  0.056
    6  0.009  0.002  0.047  0.001  0.000  0.000  0.000  0.000  0.000  0.058
    7  0.001  0.005  0.077  0.008  0.000  0.000  0.000  0.000  0.000  0.091
    8  0.001  0.027  0.094  0.012  0.000  0.000  0.000  0.000  0.000  0.134
    9  0.002  0.000  0.000  0.000  0.000  0.000  0.000  0.000  0.000  0.002
   10  0.011  0.000  0.000  0.000  0.000  0.000  0.000  0.000  0.000  0.012
   11  0.003  0.000  0.000  0.000  0.000  0.000  0.000  0.000  0.000  0.004
   12  0.008  0.000  0.000  0.000  0.000  0.000  0.000  0.000  0.000  0.009
   13  0.027  0.001  0.000  0.000  0.000  0.000  0.000  0.000  0.000  0.029
   14  0.009  0.001  0.000  0.000  0.000  0.000  0.000  0.000  0.000  0.010
   15  0.057  0.001  0.002  0.000  0.000  0.000  0.000  0.000  0.000  0.060
   16  0.004  0.011  0.015  0.009  0.000  0.000  0.000  0.000  0.000  0.039
tot    0.146  0.096  0.304  0.135  0.000  0.000  0.000  0.000  0.000  0.680
 
band    13 # energy  -10.27523417 # occ.  2.00000000
 
ion      s     py     pz     px    dxy    dyz    dz2    dxz  x2-y2    tot
    1  0.000  0.001  0.003  0.009  0.000  0.000  0.000  0.000  0.000  0.013
    2  0.000  0.007  0.010  0.010  0.000  0.000  0.000  0.000  0.000  0.026
    3  0.003  0.009  0.027  0.022  0.000  0.000  0.000  0.000  0.000  0.061
    4  0.001  0.000  0.002  0.043  0.000  0.000  0.000  0.000  0.000  0.046
    5  0.000  0.070  0.010  0.002  0.000  0.000  0.000  0.000  0.000  0.082
    6  0.003  0.001  0.048  0.016  0.000  0.000  0.000  0.000  0.000  0.069
    7  0.000  0.000  0.008  0.006  0.000  0.000  0.000  0.000  0.000  0.015
    8  0.000  0.033  0.011  0.177  0.000  0.000  0.000  0.000  0.000  0.222
    9  0.009  0.000  0.000  0.000  0.000  0.000  0.000  0.000  0.000  0.009
   10  0.001  0.000  0.000  0.000  0.000  0.000  0.000  0.000  0.000  0.001
   11  0.002  0.000  0.000  0.000  0.000  0.000  0.000  0.000  0.000  0.002
   12  0.003  0.000  0.000  0.001  0.000  0.000  0.000  0.000  0.000  0.004
   13  0.038  0.001  0.000  0.000  0.000  0.000  0.000  0.000  0.000  0.039
   14  0.020  0.001  0.001  0.000  0.000  0.000  0.000  0.000  0.000  0.021
   15  0.002  0.000  0.000  0.000  0.000  0.000  0.000  0.000  0.000  0.002
   16  0.002  0.000  0.012  0.044  0.000  0.000  0.000  0.000  0.000  0.059
tot    0.083  0.125  0.133  0.330  0.000  0.000  0.000  0.000  0.000  0.671
 
band    14 # energy   -9.85810287 # occ.  2.00000000
 
ion      s     py     pz     px    dxy    dyz    dz2    dxz  x2-y2    tot
    1  0.001  0.030  0.056  0.001  0.000  0.000  0.000  0.000  0.000  0.088
    2  0.001  0.028  0.010  0.003  0.000  0.000  0.000  0.000  0.000  0.043
    3  0.001  0.000  0.002  0.002  0.000  0.000  0.000  0.000  0.000  0.004
    4  0.011  0.000  0.035  0.001  0.000  0.000  0.000  0.000  0.000  0.047
    5  0.003  0.065  0.011  0.000  0.000  0.000  0.000  0.000  0.000  0.079
    6  0.001  0.026  0.019  0.000  0.000  0.000  0.000  0.000  0.000  0.046
    7  0.013  0.026  0.041  0.000  0.000  0.000  0.000  0.000  0.000  0.081
    8  0.000  0.023  0.003  0.055  0.000  0.000  0.000  0.000  0.000  0.081
    9  0.013  0.000  0.000  0.001  0.000  0.000  0.000  0.000  0.000  0.015
   10  0.045  0.001  0.000  0.002  0.000  0.000  0.000  0.000  0.000  0.047
   11  0.024  0.001  0.000  0.000  0.000  0.000  0.000  0.000  0.000  0.025
   12  0.000  0.000  0.000  0.000  0.000  0.000  0.000  0.000  0.000  0.001
   13  0.069  0.003  0.000  0.000  0.000  0.000  0.000  0.000  0.000  0.072
   14  0.032  0.000  0.002  0.000  0.000  0.000  0.000  0.000  0.000  0.034
   15  0.023  0.000  0.001  0.000  0.000  0.000  0.000  0.000  0.000  0.024
   16  0.003  0.016  0.006  0.009  0.000  0.000  0.000  0.000  0.000  0.034
tot    0.239  0.220  0.189  0.074  0.000  0.000  0.000  0.000  0.000  0.721
 
band    15 # energy   -9.43281712 # occ.  2.00000000
 
ion      s     py     pz     px    dxy    dyz    dz2    dxz  x2-y2    tot
    1  0.001  0.006  0.082  0.122  0.000  0.000  0.000  0.000  0.000  0.211
    2  0.010  0.047  0.000  0.000  0.000  0.000  0.000  0.000  0.000  0.058
    3  0.011  0.000  0.005  0.003  0.000  0.000  0.000  0.000  0.000  0.018
    4  0.003  0.008  0.000  0.013  0.000  0.000  0.000  0.000  0.000  0.025
    5  0.000  0.024  0.002  0.006  0.000  0.000  0.000  0.000  0.000  0.032
    6  0.001  0.003  0.002  0.000  0.000  0.000  0.000  0.000  0.000  0.006
    7  0.000  0.005  0.001  0.001  0.000  0.000  0.000  0.000  0.000  0.007
    8  0.000  0.013  0.001  0.003  0.000  0.000  0.000  0.000  0.000  0.017
    9  0.031  0.000  0.003  0.000  0.000  0.000  0.000  0.000  0.000  0.034
   10  0.067  0.004  0.001  0.000  0.000  0.000  0.000  0.000  0.000  0.072
   11  0.093  0.000  0.004  0.001  0.000  0.000  0.000  0.000  0.000  0.098
   12  0.002  0.000  0.000  0.001  0.000  0.000  0.000  0.000  0.000  0.003
   13  0.023  0.001  0.000  0.000  0.000  0.000  0.000  0.000  0.000  0.024
   14  0.000  0.000  0.000  0.000  0.000  0.000  0.000  0.000  0.000  0.000
   15  0.002  0.000  0.000  0.000  0.000  0.000  0.000  0.000  0.000  0.002
   16  0.003  0.002  0.001  0.054  0.000  0.000  0.000  0.000  0.000  0.060
tot    0.247  0.114  0.101  0.203  0.000  0.000  0.000  0.000  0.000  0.665
 
band    16 # energy   -9.22746088 # occ.  2.00000000
 
ion      s     py     pz     px    dxy    dyz    dz2    dxz  x2-y2    tot
    1  0.000  0.058  0.000  0.017  0.000  0.000  0.000  0.000  0.000  0.076
    2  0.006  0.011  0.002  0.021  0.000  0.000  0.000  0.000  0.000  0.040
    3  0.005  0.005  0.003  0.001  0.000  0.000  0.000  0.000  0.000  0.014
    4  0.008  0.016  0.003  0.005  0.000  0.000  0.000  0.000  0.000  0.032
    5  0.000  0.000  0.040  0.002  0.000  0.000  0.000  0.000  0.000  0.043
    6  0.002  0.009  0.006  0.017  0.000  0.000  0.000  0.000  0.000  0.034
    7  0.001  0.015  0.001  0.015  0.000  0.000  0.000  0.000  0.000  0.031
    8  0.000  0.024  0.037  0.203  0.000  0.000  0.000  0.000  0.000  0.264
    9  0.010  0.001  0.000  0.000  0.000  0.000  0.000  0.000  0.000  0.011
   10  0.040  0.000  0.002  0.000  0.000  0.000  0.000  0.000  0.000  0.043
   11  0.003  0.000  0.000  0.000  0.000  0.000  0.000  0.000  0.000  0.003
   12  0.011  0.000  0.001  0.000  0.000  0.000  0.000  0.000  0.000  0.012
   13  0.003  0.000  0.000  0.000  0.000  0.000  0.000  0.000  0.000  0.003
   14  0.006  0.000  0.000  0.000  0.000  0.000  0.000  0.000  0.000  0.006
   15  0.014  0.000  0.001  0.000  0.000  0.000  0.000  0.000  0.000  0.015
   16  0.011  0.019  0.006  0.041  0.000  0.000  0.000  0.000  0.000  0.077
tot    0.120  0.160  0.102  0.323  0.000  0.000  0.000  0.000  0.000  0.705
 
band    17 # energy   -9.10336016 # occ.  2.00000000
 
ion      s     py     pz     px    dxy    dyz    dz2    dxz  x2-y2    tot
    1  0.001  0.026  0.056  0.047  0.000  0.000  0.000  0.000  0.000  0.130
    2  0.000  0.003  0.000  0.012  0.000  0.000  0.000  0.000  0.000  0.015
    3  0.003  0.000  0.002  0.001  0.000  0.000  0.000  0.000  0.000  0.006
    4  0.001  0.005  0.005  0.018  0.000  0.000  0.000  0.000  0.000  0.029
    5  0.003  0.004  0.012  0.002  0.000  0.000  0.000  0.000  0.000  0.021
    6  0.001  0.003  0.012  0.007  0.000  0.000  0.000  0.000  0.000  0.023
    7  0.004  0.010  0.003  0.000  0.000  0.000  0.000  0.000  0.000  0.018
    8  0.000  0.051  0.019  0.064  0.000  0.000  0.000  0.000  0.000  0.134
    9  0.067  0.000  0.000  0.003  0.000  0.000  0.000  0.000  0.000  0.070
   10  0.008  0.000  0.002  0.000  0.000  0.000  0.000  0.000  0.000  0.009
   11  0.057  0.000  0.002  0.001  0.000  0.000  0.000  0.000  0.000  0.060
   12  0.004  0.000  0.002  0.001  0.000  0.000  0.000  0.000  0.000  0.007
   13  0.000  0.000  0.000  0.000  0.000  0.000  0.000  0.000  0.000  0.000
   14  0.010  0.000  0.001  0.000  0.000  0.000  0.000  0.000  0.000  0.011
   15  0.015  0.000  0.001  0.000  0.000  0.000  0.000  0.000  0.000  0.015
   16  0.007  0.127  0.001  0.011  0.000  0.000  0.000  0.000  0.000  0.146
tot    0.182  0.230  0.117  0.165  0.000  0.000  0.000  0.000  0.000  0.695
 
band    18 # energy   -8.74359870 # occ.  2.00000000
 
ion      s     py     pz     px    dxy    dyz    dz2    dxz  x2-y2    tot
    1  0.000  0.025  0.027  0.003  0.000  0.000  0.000  0.000  0.000  0.055
    2  0.006  0.007  0.002  0.005  0.000  0.000  0.000  0.000  0.000  0.020
    3  0.000  0.005  0.002  0.000  0.000  0.000  0.000  0.000  0.000  0.008
    4  0.000  0.002  0.026  0.016  0.000  0.000  0.000  0.000  0.000  0.044
    5  0.001  0.000  0.008  0.012  0.000  0.000  0.000  0.000  0.000  0.021
    6  0.000  0.000  0.022  0.000  0.000  0.000  0.000  0.000  0.000  0.022
    7  0.001  0.000  0.002  0.001  0.000  0.000  0.000  0.000  0.000  0.004
    8  0.000  0.278  0.005  0.008  0.000  0.000  0.000  0.000  0.000  0.292
    9  0.013  0.000  0.000  0.001  0.000  0.000  0.000  0.000  0.000  0.014
   10  0.001  0.000  0.000  0.000  0.000  0.000  0.000  0.000  0.000  0.001
   11  0.035  0.000  0.001  0.000  0.000  0.000  0.000  0.000  0.000  0.037
   12  0.004  0.000  0.002  0.001  0.000  0.000  0.000  0.000  0.000  0.007
   13  0.001  0.000  0.000  0.000  0.000  0.000  0.000  0.000  0.000  0.001
   14  0.017  0.000  0.001  0.000  0.000  0.000  0.000  0.000  0.000  0.018
   15  0.004  0.000  0.000  0.000  0.000  0.000  0.000  0.000  0.000  0.004
   16  0.006  0.039  0.000  0.153  0.000  0.000  0.000  0.000  0.000  0.197
tot    0.089  0.358  0.097  0.201  0.000  0.000  0.000  0.000  0.000  0.745
 
band    19 # energy   -8.58740729 # occ.  2.00000000
 
ion      s     py     pz     px    dxy    dyz    dz2    dxz  x2-y2    tot
    1  0.001  0.002  0.029  0.040  0.000  0.000  0.000  0.000  0.000  0.071
    2  0.002  0.009  0.001  0.001  0.000  0.000  0.000  0.000  0.000  0.012
    3  0.006  0.003  0.002  0.002  0.000  0.000  0.000  0.000  0.000  0.012
    4  0.002  0.003  0.001  0.028  0.000  0.000  0.000  0.000  0.000  0.035
    5  0.000  0.006  0.024  0.016  0.000  0.000  0.000  0.000  0.000  0.047
    6  0.002  0.053  0.004  0.003  0.000  0.000  0.000  0.000  0.000  0.062
    7  0.001  0.063  0.006  0.001  0.000  0.000  0.000  0.000  0.000  0.071
    8  0.000  0.006  0.023  0.055  0.000  0.000  0.000  0.000  0.000  0.083
    9  0.048  0.000  0.000  0.002  0.000  0.000  0.000  0.000  0.000  0.050
   10  0.000  0.000  0.000  0.001  0.000  0.000  0.000  0.000  0.000  0.001
   11  0.015  0.000  0.001  0.000  0.000  0.000  0.000  0.000  0.000  0.017
   12  0.018  0.000  0.002  0.001  0.000  0.000  0.000  0.000  0.000  0.021
   13  0.005  0.000  0.000  0.000  0.000  0.000  0.000  0.000  0.000  0.006
   14  0.000  0.001  0.000  0.000  0.000  0.000  0.000  0.000  0.000  0.001
   15  0.046  0.000  0.002  0.000  0.000  0.000  0.000  0.000  0.000  0.048
   16  0.016  0.168  0.001  0.022  0.000  0.000  0.000  0.000  0.000  0.207
tot    0.162  0.313  0.097  0.172  0.000  0.000  0.000  0.000  0.000  0.743
 
band    20 # energy   -8.26232625 # occ.  2.00000000
 
ion      s     py     pz     px    dxy    dyz    dz2    dxz  x2-y2    tot
    1  0.000  0.003  0.012  0.013  0.000  0.000  0.000  0.000  0.000  0.028
    2  0.000  0.000  0.074  0.005  0.000  0.000  0.000  0.000  0.000  0.080
    3  0.000  0.051  0.004  0.001  0.000  0.000  0.000  0.000  0.000  0.056
    4  0.005  0.023  0.002  0.003  0.000  0.000  0.000  0.000  0.000  0.033
    5  0.004  0.015  0.006  0.002  0.000  0.000  0.000  0.000  0.000  0.027
    6  0.000  0.003  0.031  0.028  0.000  0.000  0.000  0.000  0.000  0.062
    7  0.001  0.004  0.040  0.019  0.000  0.000  0.000  0.000  0.000  0.064
    8  0.000  0.217  0.015  0.000  0.000  0.000  0.000  0.000  0.000  0.232
    9  0.003  0.000  0.000  0.000  0.000  0.000  0.000  0.000  0.000  0.003
   10  0.023  0.000  0.000  0.000  0.000  0.000  0.000  0.000  0.000  0.024
   11  0.012  0.000  0.000  0.000  0.000  0.000  0.000  0.000  0.000  0.012
   12  0.001  0.000  0.000  0.001  0.000  0.000  0.000  0.000  0.000  0.003
   13  0.005  0.000  0.000  0.000  0.000  0.000  0.000  0.000  0.000  0.005
   14  0.033  0.000  0.002  0.000  0.000  0.000  0.000  0.000  0.000  0.036
   15  0.020  0.000  0.000  0.000  0.000  0.000  0.000  0.000  0.000  0.021
   16  0.003  0.017  0.006  0.045  0.000  0.000  0.000  0.000  0.000  0.071
tot    0.110  0.334  0.194  0.118  0.000  0.000  0.000  0.000  0.000  0.756
 
band    21 # energy   -7.52403216 # occ.  2.00000000
 
ion      s     py     pz     px    dxy    dyz    dz2    dxz  x2-y2    tot
    1  0.001  0.043  0.001  0.020  0.000  0.000  0.000  0.000  0.000  0.066
    2  0.002  0.049  0.031  0.022  0.000  0.000  0.000  0.000  0.000  0.104
    3  0.004  0.014  0.000  0.001  0.000  0.000  0.000  0.000  0.000  0.020
    4  0.003  0.036  0.016  0.003  0.000  0.000  0.000  0.000  0.000  0.059
    5  0.000  0.009  0.033  0.015  0.000  0.000  0.000  0.000  0.000  0.057
    6  0.001  0.021  0.071  0.009  0.000  0.000  0.000  0.000  0.000  0.102
    7  0.000  0.036  0.041  0.013  0.000  0.000  0.000  0.000  0.000  0.091
    8  0.000  0.002  0.028  0.000  0.000  0.000  0.000  0.000  0.000  0.030
    9  0.014  0.001  0.000  0.000  0.000  0.000  0.000  0.000  0.000  0.015
   10  0.002  0.000  0.000  0.001  0.000  0.000  0.000  0.000  0.000  0.003
   11  0.000  0.000  0.000  0.000  0.000  0.000  0.000  0.000  0.000  0.001
   12  0.012  0.000  0.001  0.000  0.000  0.000  0.000  0.000  0.000  0.013
   13  0.018  0.000  0.000  0.000  0.000  0.000  0.000  0.000  0.000  0.019
   14  0.076  0.000  0.004  0.001  0.000  0.000  0.000  0.000  0.000  0.081
   15  0.004  0.000  0.000  0.000  0.000  0.000  0.000  0.000  0.000  0.005
   16  0.007  0.025  0.005  0.035  0.000  0.000  0.000  0.000  0.000  0.072