<?xml version="1.0" encoding="ISO-8859-1"?>
<modeling>
 <generator>
  <i name="program" type="string">vasp </i>
  <i name="version" type="string">6.4.1  </i>
  <i name="subversion" type="string">05Apr23 (build Jun 16 2023 21:25:53) gamma-only                       parallel </i>
  <i name="platform" type="string">LinuxIFC </i>
  <i name="date" type="string">2024 07 14 </i>
  <i name="time" type="string">18:53:53 </i>
 </generator>
 <incar>
  <i type="string" name="SYSTEM">Cluster</i>
  <i type="string" name="ALGO">V</i>
  <i type="int" name="NELM">   150</i>
  <i type="int" name="NELMDL">   -20</i>
  <i type="int" name="NELMIN">     6</i>
  <i type="int" name="IBRION">     0</i>
  <i name="EDIFF">      0.00001000</i>
  <i name="EDIFFG">     -0.02000000</i>
  <i type="int" name="NSW">   300</i>
  <i type="int" name="ISIF">     2</i>
  <i type="int" name="ISYM">     0</i>
  <i type="int" name="NBLOCK">     1</i>
  <i name="ENCUT">    500.00000000</i>
  <i name="POTIM">      1.00000000</i>
  <i name="TEBEG">    500.00000000</i>
  <i name="TEEND">    500.00000000</i>
  <i name="SMASS">      0.00000000</i>
  <i type="string" name="LREAL">Auto</i>
  <i type="int" name="ISMEAR">     1</i>
  <i name="SIGMA">      0.10000000</i>
  <i type="logical" name="LWAVE"> F  </i>
  <i type="logical" name="LCHARG"> F  </i>
  <i type="int" name="LORBIT">    11</i>
  <i type="int" name="MDALGO">     2</i>
 </incar>
 <primitive_cell>
  <structure name="primitive_cell" >
   <crystal>
    <varray name="basis" >
     <v>       7.75610000       0.00000000       0.00000000 </v>
     <v>       0.00000000      11.83610000       0.00000000 </v>
     <v>       0.00000000       0.00000000      11.23020000 </v>
    </varray>
    <i name="volume">   1030.95454200 </i>
    <varray name="rec_basis" >
     <v>       0.12893078       0.00000000       0.00000000 </v>
     <v>       0.00000000       0.08448729       0.00000000 </v>
     <v>       0.00000000       0.00000000       0.08904561 </v>
    </varray>
   </crystal>
   <varray name="positions" >
    <v>       0.49762818       0.71118660       0.53761019 </v>
    <v>       0.50060465       0.58438358       0.54247319 </v>
    <v>       0.50925177       0.52113920       0.43831541 </v>
    <v>       0.51261158       0.40313341       0.43538053 </v>
    <v>       0.50675858       0.34448527       0.54315732 </v>
    <v>       0.49790767       0.40515787       0.64950322 </v>
    <v>       0.49494330       0.52321857       0.64947433 </v>
    <v>       0.51553386       0.57531693       0.32928212 </v>
    <v>       0.61371023       0.74445730       0.49358420 </v>
    <v>       0.38629720       0.74192842       0.48628632 </v>
    <v>       0.49065046       0.74679346       0.62765748 </v>
    <v>       0.52427896       0.40160319       0.26599392 </v>
    <v>       0.50928663       0.25238301       0.54144150 </v>
    <v>       0.49335771       0.35941568       0.73374053 </v>
    <v>       0.48793790       0.56950383       0.73343779 </v>
    <v>       0.52139886       0.34571598       0.32989546 </v>
   </varray>
  </structure>
  <varray name="primitive_index" >
   <v type="int" >        1 </v>
   <v type="int" >        2 </v>
   <v type="int" >        3 </v>
   <v type="int" >        4 </v>
   <v type="int" >        5 </v>
   <v type="int" >        6 </v>
   <v type="int" >        7 </v>
   <v type="int" >        8 </v>
   <v type="int" >        9 </v>
   <v type="int" >       10 </v>
   <v type="int" >       11 </v>
   <v type="int" >       12 </v>
   <v type="int" >       13 </v>
   <v type="int" >       14 </v>
   <v type="int" >       15 </v>
   <v type="int" >       16 </v>
  </varray>
 </primitive_cell>
 <kpoints>
  <generation param="Gamma">
   <v type="int" name="divisions">       1        1        1 </v>
   <v name="usershift">      0.00000000       0.00000000       0.00000000 </v>
   <v name="genvec1">      1.00000000       0.00000000       0.00000000 </v>
   <v name="genvec2">      0.00000000       1.00000000       0.00000000 </v>
   <v name="genvec3">      0.00000000       0.00000000       1.00000000 </v>
   <v name="shift">      0.00000000       0.00000000       0.00000000 </v>
  </generation>
  <varray name="kpointlist" >
   <v>       0.00000000       0.00000000       0.00000000 </v>
  </varray>
  <varray name="weights" >
   <v>       1.00000000 </v>
  </varray>
 </kpoints>
 <parameters>
  <separator name="general" >
   <i type="string" name="SYSTEM">Cluster</i>
   <i type="logical" name="LCOMPAT"> F  </i>
  </separator>
  <separator name="electronic" >
   <i type="string" name="PREC">normal</i>
   <i name="ENMAX">    500.00000000</i>
   <i name="ENAUG">    644.87300000</i>
   <i name="EDIFF">      0.00001000</i>
   <i type="int" name="IALGO">    48</i>
   <i type="int" name="IWAVPR">    12</i>
   <i type="int" name="NBANDS">    36</i>
   <i type="int" name="NBANDSLOW">    -1</i>
   <i type="int" name="NBANDSHIGH">    -1</i>
   <i name="NELECT">     48.00000000</i>
   <i type="int" name="TURBO">     0</i>
   <i type="int" name="IRESTART">     0</i>
   <i type="int" name="NREBOOT">     0</i>
   <i type="int" name="NMIN">     0</i>
   <i name="EREF">      0.00000000</i>
   <separator name="electronic smearing" >
    <i type="int" name="ISMEAR">     1</i>
    <i name="SIGMA">      0.10000000</i>
    <i name="KSPACING">      0.50000000</i>
    <i type="logical" name="KGAMMA"> T  </i>
    <i type="logical" name="KBLOWUP"> T  </i>
   </separator>
   <separator name="electronic projectors" >
    <i type="logical" name="LREAL"> T  </i>
    <v name="ROPT">     -0.00050000     -0.00050000     -0.00050000     -0.00050000</v>
    <i type="int" name="LMAXPAW">  -100</i>
    <i type="int" name="LMAXMIX">     2</i>
    <i type="logical" name="NLSPLINE"> F  </i>
   </separator>
   <separator name="electronic startup" >
    <i type="int" name="ISTART">     0</i>
    <i type="int" name="ICHARG">     2</i>
    <i type="int" name="INIWAV">     1</i>
   </separator>
   <separator name="electronic spin" >
    <i type="int" name="ISPIN">     1</i>
    <i type="logical" name="LNONCOLLINEAR"> F  </i>
    <v name="MAGMOM">      1.00000000      1.00000000      1.00000000      1.00000000      1.00000000      1.00000000      1.00000000      1.00000000      1.00000000      1.00000000      1.00000000      1.00000000      1.00000000      1.00000000      1.00000000      1.00000000</v>
    <i name="NUPDOWN">     -1.00000000</i>
    <i type="logical" name="LSORBIT"> F  </i>
    <v name="SAXIS">      0.00000000      0.00000000      1.00000000</v>
    <i type="logical" name="LSPIRAL"> F  </i>
    <v name="QSPIRAL">      0.00000000      0.00000000      0.00000000</v>
    <i type="logical" name="LZEROZ"> F  </i>
   </separator>
   <separator name="electronic exchange-correlation" >
    <i type="logical" name="LASPH"> F  </i>
    <i type="logical" name="LMETAGGA"> F  </i>
   </separator>
   <separator name="electronic convergence" >
    <i type="int" name="NELM">   150</i>
    <i type="int" name="NELMDL">   -20</i>
    <i type="int" name="NELMIN">     6</i>
    <i name="ENINI">    500.00000000</i>
    <separator name="electronic convergence detail" >
     <i type="logical" name="LDIAG"> T  </i>
     <i type="logical" name="LSUBROT"> F  </i>
     <i name="WEIMIN">      0.00100000</i>
     <i name="EBREAK">      0.00000007</i>
     <i name="DEPER">      0.30000000</i>
     <i type="int" name="NRMM">     4</i>
     <i name="TIME">      0.40000000</i>
    </separator>
   </separator>
   <separator name="electronic mixer" >
    <i name="AMIX">      0.40000000</i>
    <i name="BMIX">      1.00000000</i>
    <i name="AMIN">      0.10000000</i>
    <i name="AMIX_MAG">      1.60000000</i>
    <i name="BMIX_MAG">      1.00000000</i>
    <separator name="electronic mixer details" >
     <i type="int" name="IMIX">     4</i>
     <i type="logical" name="MIXFIRST"> F  </i>
     <i type="int" name="MAXMIX">   -45</i>
     <i name="WC">    100.00000000</i>
     <i type="int" name="INIMIX">     1</i>
     <i type="int" name="MIXPRE">     1</i>
     <i type="int" name="MREMOVE">     5</i>
    </separator>
   </separator>
   <separator name="electronic dipolcorrection" >
    <i type="logical" name="LDIPOL"> F  </i>
    <i type="logical" name="LMONO"> F  </i>
    <i type="int" name="IDIPOL">     0</i>
    <i name="EPSILON">      1.00000000</i>
    <v name="DIPOL">   -100.00000000   -100.00000000   -100.00000000</v>
    <i name="EFIELD">      0.00000000</i>
   </separator>
  </separator>
  <separator name="grids" >
   <i type="int" name="NGX">    42</i>
   <i type="int" name="NGY">    70</i>
   <i type="int" name="NGZ">    64</i>
   <i type="int" name="NGXF">    84</i>
   <i type="int" name="NGYF">   140</i>
   <i type="int" name="NGZF">   128</i>
   <i type="logical" name="ADDGRID"> F  </i>
  </separator>
  <separator name="ionic" >
   <i type="int" name="NSW">   300</i>
   <i type="int" name="IBRION">     0</i>
   <i type="int" name="MDALGO">     2</i>
   <i type="int" name="ISIF">     2</i>
   <i name="PSTRESS">      0.00000000</i>
   <i name="EDIFFG">     -0.02000000</i>
   <i type="int" name="NFREE">     0</i>
   <i name="POTIM">      1.00000000</i>
   <i name="SMASS">      0.02520709</i>
   <i name="SCALEE">      1.00000000</i>
  </separator>
  <separator name="ionic md" >
   <i name="TEBEG">    500.00000000</i>
   <i name="TEEND">    500.00000000</i>
   <i type="int" name="NBLOCK">     1</i>
   <i type="int" name="KBLOCK">   300</i>
   <i type="int" name="NPACO">   256</i>
   <i name="APACO">     10.00000000</i>
  </separator>
  <separator name="symmetry" >
   <i type="int" name="ISYM">     0</i>
   <i name="SYMPREC">      0.00001000</i>
  </separator>
  <separator name="dos" >
   <i type="int" name="LORBIT">    11</i>
   <v name="RWIGS">     -1.00000000     -1.00000000     -1.00000000     -1.00000000</v>
   <i type="int" name="NEDOS">   301</i>
   <i name="EMIN">     10.00000000</i>
   <i name="EMAX">    -10.00000000</i>
   <i name="EFERMI">      0.00000000</i>
  </separator>
  <separator name="writing" >
   <i type="int" name="NWRITE">     2</i>
   <i type="logical" name="LWAVE"> F  </i>
   <i type="logical" name="LDOWNSAMPLE"> F  </i>
   <i type="logical" name="LCHARG"> F  </i>
   <i type="logical" name="LPARD"> F  </i>
   <i type="logical" name="LVTOT"> F  </i>
   <i type="logical" name="LVHAR"> F  </i>
   <i type="logical" name="LELF"> F  </i>
   <i type="logical" name="LOPTICS"> F  </i>
   <v name="STM">      0.00000000      0.00000000      0.00000000      0.00000000      0.00000000      0.00000000      0.00000000</v>
  </separator>
  <separator name="performance" >
   <i type="int" name="NPAR">     4</i>
   <i type="int" name="NSIM">     4</i>
   <i type="int" name="NBLK">    -1</i>
   <i type="logical" name="LPLANE"> T  </i>
   <i type="logical" name="LSCALAPACK"> T  </i>
   <i type="logical" name="LSCAAWARE"> F  </i>
   <i type="logical" name="LSCALU"> F  </i>
   <i type="logical" name="LASYNC"> F  </i>
   <i type="logical" name="LORBITALREAL"> F  </i>
  </separator>
  <separator name="miscellaneous" >
   <i type="int" name="IDIOT">     3</i>
   <i type="int" name="PHON_NSTRUCT">    -1</i>
   <i type="logical" name="LMUSIC"> F  </i>
   <v name="POMASS">     12.01100000     18.99800000      1.00000000     16.00000000</v>
   <v name="DARWINR">      0.00000000      0.00000000      0.00000000      0.00000000</v>
   <v name="DARWINV">      1.00000000      1.00000000      1.00000000      1.00000000</v>
   <i type="logical" name="LCORR"> T  </i>
  </separator>
  <i type="logical" name="GGA_COMPAT"> T  </i>
  <i type="logical" name="LBERRY"> F  </i>
  <i type="int" name="ICORELEVEL">     0</i>
  <i type="logical" name="LDAU"> F  </i>
  <i type="int" name="I_CONSTRAINED_M">     0</i>
  <separator name="electronic exchange-correlation" >
   <i type="string" name="GGA">--</i>
   <i type="int" name="VOSKOWN">     0</i>
   <i type="logical" name="LHFCALC"> F  </i>
   <i type="string" name="PRECFOCK"></i>
   <i type="logical" name="LSYMGRAD"> F  </i>
   <i type="logical" name="LHFONE"> F  </i>
   <i type="logical" name="LRHFCALC"> F  </i>
   <i type="logical" name="LTHOMAS"> F  </i>
   <i type="logical" name="LMODELHF"> F  </i>
   <i type="logical" name="LFOCKACE"> F  </i>
   <i name="ENCUT4O">     -1.00000000</i>
   <i type="int" name="EXXOEP">     0</i>
   <i type="int" name="FOURORBIT">     0</i>
   <i name="AEXX">      0.00000000</i>
   <i name="HFALPHA">      0.00000000</i>
   <i name="MCALPHA">      0.00000000</i>
   <i name="ALDAX">      1.00000000</i>
   <i name="AGGAX">      1.00000000</i>
   <i name="ALDAC">      1.00000000</i>
   <i name="AGGAC">      1.00000000</i>
   <i type="int" name="NKREDX">     1</i>
   <i type="int" name="NKREDY">     1</i>
   <i type="int" name="NKREDZ">     1</i>
   <i type="logical" name="SHIFTRED"> F  </i>
   <i type="logical" name="ODDONLY"> F  </i>
   <i type="logical" name="EVENONLY"> F  </i>
   <i type="int" name="LMAXFOCK">     0</i>
   <i type="int" name="NMAXFOCKAE">     0</i>
   <i type="logical" name="LFOCKAEDFT"> F  </i>
   <i name="HFSCREEN">      0.00000000</i>
   <i name="HFSCREENC">      0.00000000</i>
   <i type="int" name="NBANDSGWLOW">     0</i>
  </separator>
  <separator name="vdW DFT" >
   <i type="logical" name="LUSE_VDW"> F  </i>
   <i type="int" name="IVDW_NL">     1</i>
   <i type="logical" name="LSPIN_VDW"> F  </i>
   <i name="Zab_VDW">     -0.84910000</i>
   <i name="PARAM1">      0.12340000</i>
   <i name="PARAM2">      1.00000000</i>
   <i name="PARAM3">      0.00000000</i>
  </separator>
  <separator name="model GW" >
   <i type="int" name="MODEL_GW">     0</i>
   <i name="MODEL_EPS0">     38.66079533</i>
   <i name="MODEL_ALPHA">      1.00000000</i>
  </separator>
  <separator name="linear response parameters" >
   <i type="logical" name="LEPSILON"> F  </i>
   <i type="logical" name="LRPA"> F  </i>
   <i type="logical" name="LNABLA"> F  </i>
   <i type="logical" name="LVEL"> F  </i>
   <i name="CSHIFT">      0.10000000</i>
   <i name="OMEGAMAX">     -1.00000000</i>
   <i name="DEG_THRESHOLD">      0.00200000</i>
   <i name="RTIME">     -0.10000000</i>
   <i name="WPLASMAI">      0.00000000</i>
   <v name="DFIELD">      0.00000000      0.00000000      0.00000000</v>
   <v name="WPLASMA">      0.00000000      0.00000000      0.00000000      0.00000000      0.00000000      0.00000000      0.00000000      0.00000000      0.00000000</v>
  </separator>
  <separator name="orbital magnetization" >
   <i type="logical" name="NUCIND"> F  </i>
   <v name="MAGPOS">      0.00000000      0.00000000      0.00000000</v>
   <i type="logical" name="LNICSALL"> T  </i>
   <i type="logical" name="ORBITALMAG"> F  </i>
   <i type="logical" name="LMAGBLOCH"> F  </i>
   <i type="logical" name="LCHIMAG"> F  </i>
   <i type="logical" name="LGAUGE"> T  </i>
   <i type="int" name="MAGATOM">     0</i>
   <v name="MAGDIPOL">      0.00000000      0.00000000      0.00000000</v>
   <v name="AVECCONST">      0.00000000      0.00000000      0.00000000</v>
  </separator>
  <separator name="response functions" >
   <i type="logical" name="LALL_IN_ONE"> F  </i>
   <i type="int" name="IALL_IN_ONE">    -1</i>
   <i type="int" name="NBANDS_WAVE">    -1</i>
   <i type="logical" name="LFINITE_TEMPERATURE"> F  </i>
   <i type="logical" name="LADDER"> F  </i>
   <i type="logical" name="LRPAFORCE"> F  </i>
   <i type="logical" name="LFXC"> F  </i>
   <i type="logical" name="LHARTREE"> T  </i>
   <i type="int" name="IBSE">     0</i>
   <v type="int" name="KPOINT">    -1     0     0     0</v>
   <i type="logical" name="LTCTC"> F  </i>
   <i type="logical" name="LTCTE"> F  </i>
   <i type="logical" name="LTETE"> F  </i>
   <i type="logical" name="LTRIPLET"> F  </i>
   <i type="logical" name="LFXCEPS"> F  </i>
   <i type="logical" name="LFXHEG"> F  </i>
   <i type="int" name="NATURALO">     2</i>
   <i type="logical" name="LHOLEGF"> F  </i>
   <i type="logical" name="L2ORDER"> F  </i>
   <i type="logical" name="LDMP1"> F  </i>
   <i type="logical" name="LMP2LT"> F  </i>
   <i type="logical" name="LSMP2LT"> F  </i>
   <i type="logical" name="LGWLF"> F  </i>
   <i name="ENCUTGW">     -1.60000002</i>
   <i name="ENCUTGWSOFT">     -1.60000002</i>
   <i name="ENCUTLF">     -1.00000000</i>
   <i type="logical" name="LESF_SPLINES"> F  </i>
   <i type="int" name="LMAXMP2">    -1</i>
   <i name="SCISSOR">      0.00000000</i>
   <i type="int" name="NOMEGA">     0</i>
   <i type="int" name="NOMEGAR">     0</i>
   <i type="int" name="NBANDSGW">    -1</i>
   <i type="int" name="NBANDSO">    -1</i>
   <i type="int" name="NBANDSV">    -1</i>
   <i type="int" name="NELMGW">     1</i>
   <i type="int" name="NELMHF">     1</i>
   <i type="int" name="DIM">     3</i>
   <i type="int" name="IESPILON">     4</i>
   <i type="int" name="ANTIRES">     0</i>
   <i name="OMEGAMAX">    -30.00000000</i>
   <i name="OMEGAMIN">    -30.00000000</i>
   <i name="OMEGATL">   -200.00000000</i>
   <i type="int" name="OMEGAGRID">     0</i>
   <i name="CSHIFT">     -0.10000000</i>
   <i type="logical" name="LSELFENERGY"> F  </i>
   <i type="logical" name="LSPECTRAL"> F  </i>
   <i type="logical" name="LSPECTRALGW"> F  </i>
   <i type="logical" name="LSINGLES"> F  </i>
   <i type="logical" name="LFERMIGW"> F  </i>
   <i type="logical" name="ODDONLYGW"> F  </i>
   <i type="logical" name="EVENONLYGW"> F  </i>
   <i type="int" name="NKREDLFX">     1</i>
   <i type="int" name="NKREDLFY">     1</i>
   <i type="int" name="NKREDLFZ">     1</i>
   <i type="int" name="MAXMEM">  2800</i>
   <i type="int" name="TELESCOPE">     0</i>
   <i type="int" name="NTAUPAR">    -1</i>
   <i type="int" name="NOMEGAPAR">    -1</i>
   <i name="DAMP_NEWTON">      0.80000001</i>
   <i name="LAMBDA">      1.00000000</i>
  </separator>
  <separator name="External order field" >
   <i name="OFIELD_KAPPA">      0.00000000</i>
   <v name="OFIELD_K">      0.00000000      0.00000000      0.00000000</v>
   <i name="OFIELD_Q6_NEAR">      0.00000000</i>
   <i name="OFIELD_Q6_FAR">      0.00000000</i>
   <i name="OFIELD_A">      0.00000000</i>
  </separator>
  <separator name="optional k-points parameters" >
   <i type="int" name="KPOINTS_OPT_MODE">     1</i>
   <i type="logical" name="LKPOINTS_OPT"> F  </i>
  </separator>
  <separator name="solvation model" >
   <i type="logical" name="LSOL"> F  </i>
  </separator>
 </parameters>
 <atominfo>
  <atoms>      16 </atoms>
  <types>       4 </types>
  <array name="atoms" >
   <dimension dim="1">ion</dimension>
   <field type="string">element</field>
   <field type="int">atomtype</field>
   <set>
    <rc><c>C </c><c>   1</c></rc>
    <rc><c>C </c><c>   1</c></rc>
    <rc><c>C </c><c>   1</c></rc>
    <rc><c>C </c><c>   1</c></rc>
    <rc><c>C </c><c>   1</c></rc>
    <rc><c>C </c><c>   1</c></rc>
    <rc><c>C </c><c>   1</c></rc>
    <rc><c>F </c><c>   2</c></rc>
    <rc><c>H </c><c>   3</c></rc>
    <rc><c>H </c><c>   3</c></rc>
    <rc><c>H </c><c>   3</c></rc>
    <rc><c>H </c><c>   3</c></rc>
    <rc><c>H </c><c>   3</c></rc>
    <rc><c>H </c><c>   3</c></rc>
    <rc><c>H </c><c>   3</c></rc>
    <rc><c>O </c><c>   4</c></rc>
   </set>
  </array>
  <array name="atomtypes" >
   <dimension dim="1">type</dimension>
   <field type="int">atomspertype</field>
   <field type="string">element</field>
   <field>mass</field>
   <field>valence</field>
   <field type="string">pseudopotential</field>
   <set>
    <rc><c>   7</c><c>C </c><c>     12.01100000</c><c>      4.00000000</c><c>  PAW_PBE C 08Apr2002                   </c></rc>
    <rc><c>   1</c><c>F </c><c>     18.99800000</c><c>      7.00000000</c><c>  PAW_PBE F 08Apr2002                   </c></rc>
    <rc><c>   7</c><c>H </c><c>      1.00000000</c><c>      1.00000000</c><c>  PAW_PBE H 15Jun2001                   </c></rc>
    <rc><c>   1</c><c>O </c><c>     16.00000000</c><c>      6.00000000</c><c>  PAW_PBE O 08Apr2002                   </c></rc>
   </set>
  </array>
 </atominfo>
 <structure name="initialpos" >
  <crystal>
   <varray name="basis" >
    <v>       7.75610000       0.00000000       0.00000000 </v>
    <v>       0.00000000      11.83610000       0.00000000 </v>
    <v>       0.00000000       0.00000000      11.23020000 </v>
   </varray>
   <i name="volume">   1030.95454200 </i>
   <varray name="rec_basis" >
    <v>       0.12893078       0.00000000       0.00000000 </v>
    <v>       0.00000000       0.08448729       0.00000000 </v>
    <v>       0.00000000       0.00000000       0.08904561 </v>
   </varray>
  </crystal>
  <varray name="positions" >
   <v>       0.49762818       0.71118660       0.53761019 </v>
   <v>       0.50060465       0.58438358       0.54247319 </v>
   <v>       0.50925177       0.52113920       0.43831541 </v>
   <v>       0.51261158       0.40313341       0.43538053 </v>
   <v>       0.50675858       0.34448527       0.54315732 </v>
   <v>       0.49790767       0.40515787       0.64950322 </v>
   <v>       0.49494330       0.52321857       0.64947433 </v>
   <v>       0.51553386       0.57531693       0.32928212 </v>
   <v>       0.61371023       0.74445730       0.49358420 </v>
   <v>       0.38629720       0.74192842       0.48628632 </v>
   <v>       0.49065046       0.74679346       0.62765748 </v>
   <v>       0.52427896       0.40160319       0.26599392 </v>
   <v>       0.50928663       0.25238301       0.54144150 </v>
   <v>       0.49335771       0.35941568       0.73374053 </v>
   <v>       0.48793790       0.56950383       0.73343779 </v>
   <v>       0.52139886       0.34571598       0.32989546 </v>
  </varray>
  <varray name="velocities" >
   <v>       0.00077027      -0.00047374      -0.00018867 </v>
   <v>       0.00026306       0.00086365      -0.00036032 </v>
   <v>      -0.00044870      -0.00016348       0.00034454 </v>
   <v>      -0.00006539       0.00021850      -0.00001412 </v>
   <v>       0.00043058      -0.00011001      -0.00005421 </v>
   <v>       0.00042637      -0.00059735      -0.00040581 </v>
   <v>      -0.00096596      -0.00031287       0.00054701 </v>
   <v>       0.00056111       0.00028294      -0.00042866 </v>
   <v>      -0.00041356       0.00383768       0.00169691 </v>
   <v>      -0.00340513       0.00103010       0.00239640 </v>
   <v>       0.00214697      -0.00013517       0.00210952 </v>
   <v>      -0.00552042      -0.00387097       0.00075709 </v>
   <v>       0.00043796      -0.00098471      -0.00191725 </v>
   <v>      -0.00097161       0.00044739      -0.00199399 </v>
   <v>       0.00076182       0.00054554      -0.00317490 </v>
   <v>      -0.00053895       0.00004154       0.00061565 </v>
  </varray>
 </structure>
 <calculation>
  <scstep>
   <time name="diag">    0.16    0.37</time>
   <time name="diis">    0.19    0.19</time>
   <time name="orth">    0.00    0.00</time>
   <time name="total">    0.56    0.80</time>
   <energy>
    <i name="alphaZ">      9.73354436 </i>
    <i name="ewald">   1837.25526095 </i>
    <i name="hartreedc">  -3523.62076661 </i>
    <i name="XCdc">    172.34369052 </i>
    <i name="pawpsdc">   1660.34980416 </i>
    <i name="pawaedc">  -1671.29803938 </i>
    <i name="eentropy">      0.02866355 </i>
    <i name="bandstr">    103.17075492 </i>
    <i name="atom">   2209.41246822 </i>
    <i name="e_fr_energy">    797.37538069 </i>
    <i name="e_wo_entrp">    797.34671714 </i>
    <i name="e_0_energy">    797.36582617 </i>
   </energy>
  </scstep>
  <scstep>
   <time name="diag">    0.12    0.14</time>
   <time name="diis">    0.18    0.19</time>
   <time name="orth">    0.01    0.01</time>
   <time name="total">    0.30    0.34</time>
   <energy>
    <i name="e_fr_energy">    429.18535465 </i>
    <i name="e_wo_entrp">    429.19995997 </i>
    <i name="e_0_energy">    429.19022309 </i>
   </energy>
  </scstep>
  <scstep>
   <time name="diag">    0.09    0.09</time>
   <time name="diis">    0.19    0.19</time>
   <time name="orth">    0.00    0.00</time>
   <time name="total">    0.28    0.29</time>
   <energy>
    <i name="e_fr_energy">    253.67673196 </i>
    <i name="e_wo_entrp">    253.71421363 </i>
    <i name="e_0_energy">    253.68922585 </i>
   </energy>
  </scstep>
  <scstep>
   <time name="diag">    0.09    0.09</time>
   <time name="diis">    0.19    0.19</time>
   <time name="orth">    0.00    0.01</time>
   <time name="total">    0.28    0.29</time>
   <energy>
    <i name="e_fr_energy">     84.87504144 </i>
    <i name="e_wo_entrp">     84.85026667 </i>
    <i name="e_0_energy">     84.86678319 </i>
   </energy>
  </scstep>
  <scstep>
   <time name="diag">    0.08    0.09</time>
   <time name="diis">    0.19    0.20</time>
   <time name="orth">    0.01    0.01</time>
   <time name="total">    0.28    0.29</time>
   <energy>
    <i name="e_fr_energy">    -19.45669063 </i>
    <i name="e_wo_entrp">    -19.46428802 </i>
    <i name="e_0_energy">    -19.45922309 </i>
   </energy>
  </scstep>
  <scstep>
   <time name="diag">    0.08    0.09</time>
   <time name="diis">    0.19    0.20</time>
   <time name="orth">    0.00    0.00</time>
   <time name="total">    0.28    0.29</time>
   <energy>
    <i name="e_fr_energy">    -74.13567137 </i>
    <i name="e_wo_entrp">    -74.14146928 </i>
    <i name="e_0_energy">    -74.13760401 </i>
   </energy>
  </scstep>
  <scstep>
   <time name="diag">    0.08    0.08</time>
   <time name="diis">    0.20    0.20</time>
   <time name="orth">    0.00    0.00</time>
   <time name="total">    0.28    0.29</time>
   <energy>
    <i name="e_fr_energy">    -99.94338075 </i>
    <i name="e_wo_entrp">    -99.94917866 </i>
    <i name="e_0_energy">    -99.94531339 </i>
   </energy>
  </scstep>
  <scstep>
   <time name="diag">    0.08    0.08</time>
   <time name="diis">    0.19    0.20</time>
   <time name="orth">    0.01    0.01</time>
   <time name="total">    0.28    0.28</time>
   <energy>
    <i name="e_fr_energy">   -106.44708061 </i>
    <i name="e_wo_entrp">   -106.45287851 </i>
    <i name="e_0_energy">   -106.44901324 </i>
   </energy>
  </scstep>
  <scstep>
   <time name="diag">    0.08    0.08</time>
   <time name="diis">    0.19    0.19</time>
   <time name="orth">    0.00    0.00</time>
   <time name="total">    0.27    0.28</time>
   <energy>
    <i name="e_fr_energy">   -108.28262639 </i>
    <i name="e_wo_entrp">   -108.28842430 </i>
    <i name="e_0_energy">   -108.28455903 </i>
   </energy>
  </scstep>
  <scstep>
   <time name="diag">    0.09    0.09</time>
   <time name="diis">    0.18    0.18</time>
   <time name="orth">    0.01    0.01</time>
   <time name="total">    0.27    0.28</time>
   <energy>
    <i name="e_fr_energy">   -108.90876711 </i>
    <i name="e_wo_entrp">   -108.91456502 </i>
    <i name="e_0_energy">   -108.91069975 </i>
   </energy>
  </scstep>
  <scstep>
   <time name="diag">    0.09    0.09</time>
   <time name="diis">    0.19    0.19</time>
   <time name="orth">    0.01    0.01</time>
   <time name="total">    0.28    0.29</time>
   <energy>
    <i name="e_fr_energy">   -109.10857582 </i>
    <i name="e_wo_entrp">   -109.11437373 </i>
    <i name="e_0_energy">   -109.11050846 </i>
   </energy>
  </scstep>
  <scstep>
   <time name="diag">    0.09    0.09</time>
   <time name="diis">    0.19    0.19</time>
   <time name="orth">    0.00    0.00</time>
   <time name="total">    0.28    0.29</time>
   <energy>
    <i name="e_fr_energy">   -109.18170859 </i>
    <i name="e_wo_entrp">   -109.18750649 </i>
    <i name="e_0_energy">   -109.18364122 </i>
   </energy>
  </scstep>
  <scstep>
   <time name="diag">    0.09    0.09</time>
   <time name="diis">    0.19    0.19</time>
   <time name="orth">    0.01    0.01</time>
   <time name="total">    0.28    0.28</time>
   <energy>
    <i name="e_fr_energy">   -109.20841233 </i>
    <i name="e_wo_entrp">   -109.21421023 </i>
    <i name="e_0_energy">   -109.21034496 </i>
   </energy>
  </scstep>
  <scstep>
   <time name="diag">    0.09    0.09</time>
   <time name="diis">    0.18    0.19</time>
   <time name="orth">    0.00    0.00</time>
   <time name="total">    0.28    0.28</time>
   <energy>
    <i name="e_fr_energy">   -109.21900785 </i>
    <i name="e_wo_entrp">   -109.22480575 </i>
    <i name="e_0_energy">   -109.22094048 </i>
   </energy>
  </scstep>
  <scstep>
   <time name="diag">    0.08    0.09</time>
   <time name="diis">    0.35    0.36</time>
   <time name="orth">    0.00    0.00</time>
   <time name="total">    0.44    0.45</time>
   <energy>
    <i name="e_fr_energy">   -109.22462236 </i>
    <i name="e_wo_entrp">   -109.23042027 </i>
    <i name="e_0_energy">   -109.22655500 </i>
   </energy>
  </scstep>
  <scstep>
   <time name="diag">    0.09    0.09</time>
   <time name="diis">    0.35    0.35</time>
   <time name="orth">    0.00    0.00</time>
   <time name="total">    0.45    0.45</time>
   <energy>
    <i name="e_fr_energy">   -109.22611334 </i>
    <i name="e_wo_entrp">   -109.23191125 </i>
    <i name="e_0_energy">   -109.22804598 </i>
   </energy>
  </scstep>
  <scstep>
   <time name="diag">    0.09    0.09</time>
   <time name="diis">    0.37    0.37</time>
   <time name="orth">    0.00    0.00</time>
   <time name="total">    0.46    0.47</time>
   <energy>
    <i name="e_fr_energy">   -109.22632465 </i>
    <i name="e_wo_entrp">   -109.23212256 </i>
    <i name="e_0_energy">   -109.22825729 </i>
   </energy>
  </scstep>
  <scstep>
   <time name="diag">    0.08    0.08</time>
   <time name="diis">    0.27    0.27</time>
   <time name="orth">    0.00    0.00</time>
   <time name="total">    0.36    0.36</time>
   <energy>
    <i name="e_fr_energy">   -109.22633237 </i>
    <i name="e_wo_entrp">   -109.23213028 </i>
    <i name="e_0_energy">   -109.22826501 </i>
   </energy>
  </scstep>
  <scstep>
   <time name="diag">    0.05    0.06</time>
   <time name="diis">    0.22    0.23</time>
   <time name="orth">    0.01    0.01</time>
   <time name="total">    0.28    0.29</time>
   <energy>
    <i name="e_fr_energy">   -109.22633329 </i>
    <i name="e_wo_entrp">   -109.23213119 </i>
    <i name="e_0_energy">   -109.22826592 </i>
   </energy>
  </scstep>
  <scstep>
   <time name="diag">    0.09    0.09</time>
   <time name="diis">    0.23    0.24</time>
   <time name="orth">    0.01    0.01</time>
   <time name="total">    0.40    0.40</time>
   <energy>
    <i name="e_fr_energy">   -109.22633347 </i>
    <i name="e_wo_entrp">   -109.23213138 </i>
    <i name="e_0_energy">   -109.22826611 </i>
   </energy>
  </scstep>
  <scstep>
   <time name="diag">    0.08    0.08</time>
   <time name="diis">    0.55    0.56</time>
   <time name="orth">    0.00    0.00</time>
   <time name="total">    0.91    0.92</time>
   <energy>
    <i name="e_fr_energy">   -101.63655928 </i>
    <i name="e_wo_entrp">   -101.64235718 </i>
    <i name="e_0_energy">   -101.63849191 </i>
   </energy>
  </scstep>
  <scstep>
   <time name="diag">    0.08    0.08</time>
   <time name="diis">    0.53    0.54</time>
   <time name="orth">    0.00    0.00</time>
   <time name="total">    0.87    0.88</time>
   <energy>
    <i name="e_fr_energy">    -99.87000141 </i>
    <i name="e_wo_entrp">    -99.87579932 </i>
    <i name="e_0_energy">    -99.87193405 </i>
   </energy>
  </scstep>
  <scstep>
   <time name="diag">    0.09    0.09</time>
   <time name="diis">    0.50    0.51</time>
   <time name="orth">    0.00    0.00</time>
   <time name="total">    0.87    0.89</time>
   <energy>
    <i name="e_fr_energy">    -99.59124831 </i>
    <i name="e_wo_entrp">    -99.59704621 </i>
    <i name="e_0_energy">    -99.59318094 </i>
   </energy>
  </scstep>
  <scstep>
   <time name="diag">    0.09    0.09</time>
   <time name="diis">    0.45    0.45</time>
   <time name="orth">    0.00    0.00</time>
   <time name="total">    0.84    0.86</time>
   <energy>
    <i name="e_fr_energy">    -99.55831195 </i>
    <i name="e_wo_entrp">    -99.56410985 </i>
    <i name="e_0_energy">    -99.56024458 </i>
   </energy>
  </scstep>
  <scstep>
   <time name="diag">    0.08    0.08</time>
   <time name="diis">    0.38    0.38</time>
   <time name="orth">    0.00    0.00</time>
   <time name="total">    0.78    0.79</time>
   <energy>
    <i name="e_fr_energy">    -99.55219804 </i>
    <i name="e_wo_entrp">    -99.55799595 </i>
    <i name="e_0_energy">    -99.55413068 </i>
   </energy>
  </scstep>
  <scstep>
   <time name="diag">    0.06    0.06</time>
   <time name="diis">    0.45    0.46</time>
   <time name="orth">    0.01    0.01</time>
   <time name="total">    0.79    0.81</time>
   <energy>
    <i name="e_fr_energy">    -99.55213240 </i>
    <i name="e_wo_entrp">    -99.55793030 </i>
    <i name="e_0_energy">    -99.55406503 </i>
   </energy>
  </scstep>
  <scstep>
   <time name="diag">    0.08    0.08</time>
   <time name="diis">    0.35    0.36</time>
   <time name="orth">    0.01    0.01</time>
   <time name="total">    0.70    0.72</time>
   <energy>
    <i name="e_fr_energy">    -99.55673487 </i>
    <i name="e_wo_entrp">    -99.56253277 </i>
    <i name="e_0_energy">    -99.55866750 </i>
   </energy>
  </scstep>
  <scstep>
   <time name="diag">    0.09    0.09</time>
   <time name="diis">    0.31    0.31</time>
   <time name="orth">    0.00    0.00</time>
   <time name="total">    0.66    0.68</time>
   <energy>
    <i name="e_fr_energy">    -99.56277261 </i>
    <i name="e_wo_entrp">    -99.56857051 </i>
    <i name="e_0_energy">    -99.56470524 </i>
   </energy>
  </scstep>
  <scstep>
   <time name="diag">    0.09    0.09</time>
   <time name="diis">    0.27    0.28</time>
   <time name="orth">    0.01    0.01</time>
   <time name="total">    0.66    0.67</time>
   <energy>
    <i name="e_fr_energy">    -99.56695806 </i>
    <i name="e_wo_entrp">    -99.57275596 </i>
    <i name="e_0_energy">    -99.56889069 </i>
   </energy>
  </scstep>
  <scstep>
   <time name="diag">    0.08    0.08</time>
   <time name="diis">    0.30    0.30</time>
   <time name="orth">    0.00    0.00</time>
   <time name="total">    0.68    0.69</time>
   <energy>
    <i name="e_fr_energy">    -99.56948324 </i>
    <i name="e_wo_entrp">    -99.57528114 </i>
    <i name="e_0_energy">    -99.57141587 </i>
   </energy>
  </scstep>
  <scstep>
   <time name="diag">    0.08    0.08</time>
   <time name="diis">    0.29    0.30</time>
   <time name="orth">    0.00    0.01</time>
   <time name="total">    0.63    0.64</time>
   <energy>
    <i name="e_fr_energy">    -99.57025484 </i>
    <i name="e_wo_entrp">    -99.57605274 </i>
    <i name="e_0_energy">    -99.57218747 </i>
   </energy>
  </scstep>
  <scstep>
   <time name="diag">    0.08    0.08</time>
   <time name="diis">    0.22    0.23</time>
   <time name="orth">    0.00    0.00</time>
   <time name="total">    0.56    0.57</time>
   <energy>
    <i name="e_fr_energy">    -99.57042171 </i>
    <i name="e_wo_entrp">    -99.57621962 </i>
    <i name="e_0_energy">    -99.57235435 </i>
   </energy>
  </scstep>
  <scstep>
   <time name="diag">    0.09    0.09</time>
   <time name="diis">    0.23    0.23</time>
   <time name="orth">    0.00    0.00</time>
   <time name="total">    0.57    0.58</time>
   <energy>
    <i name="e_fr_energy">    -99.57050729 </i>
    <i name="e_wo_entrp">    -99.57630520 </i>
    <i name="e_0_energy">    -99.57243993 </i>
   </energy>
  </scstep>
  <scstep>
   <time name="diag">    0.07    0.07</time>
   <time name="diis">    0.18    0.18</time>
   <time name="orth">    0.00    0.00</time>
   <time name="total">    0.47    0.47</time>
   <energy>
    <i name="e_fr_energy">    -99.57054581 </i>
    <i name="e_wo_entrp">    -99.57634371 </i>
    <i name="e_0_energy">    -99.57247844 </i>
   </energy>
  </scstep>
  <scstep>
   <time name="diag">    0.06    0.06</time>
   <time name="diis">    0.19    0.19</time>
   <time name="orth">    0.00    0.00</time>
   <time name="total">    0.47    0.48</time>
   <energy>
    <i name="e_fr_energy">    -99.57056033 </i>
    <i name="e_wo_entrp">    -99.57635824 </i>
    <i name="e_0_energy">    -99.57249296 </i>
   </energy>
  </scstep>
  <scstep>
   <time name="diag">    0.07    0.07</time>
   <time name="diis">    0.17    0.17</time>
   <time name="orth">    0.00    0.01</time>
   <time name="total">    0.50    0.50</time>
   <energy>
    <i name="alphaZ">      9.73354436 </i>
    <i name="ewald">   1837.25526095 </i>
    <i name="hartreedc">  -3714.36605785 </i>
    <i name="XCdc">    181.31332590 </i>
    <i name="pawpsdc">   4095.30173544 </i>
    <i name="pawaedc">  -4107.52412886 </i>
    <i name="eentropy">      0.00579791 </i>
    <i name="bandstr">   -610.70250949 </i>
    <i name="atom">   2209.41246822 </i>
    <i name="e_fr_energy">    -99.57056342 </i>
    <i name="e_wo_entrp">    -99.57636133 </i>
    <i name="e_0_energy">    -99.57249606 </i>
   </energy>
  </scstep>
  <structure>
   <crystal>
    <varray name="basis" >
     <v>       7.75610000       0.00000000       0.00000000 </v>
     <v>       0.00000000      11.83610000       0.00000000 </v>
     <v>       0.00000000       0.00000000      11.23020000 </v>
    </varray>
    <i name="volume">   1030.95454200 </i>
    <varray name="rec_basis" >
     <v>       0.12893078       0.00000000       0.00000000 </v>
     <v>       0.00000000       0.08448729       0.00000000 </v>
     <v>       0.00000000       0.00000000       0.08904561 </v>
    </varray>
   </crystal>
   <varray name="positions" >
    <v>       0.49762818       0.71118660       0.53761019 </v>
    <v>       0.50060465       0.58438358       0.54247319 </v>
    <v>       0.50925177       0.52113920       0.43831541 </v>
    <v>       0.51261158       0.40313341       0.43538053 </v>
    <v>       0.50675858       0.34448527       0.54315732 </v>
    <v>       0.49790767       0.40515787       0.64950322 </v>
    <v>       0.49494330       0.52321857       0.64947433 </v>
    <v>       0.51553386       0.57531693       0.32928212 </v>
    <v>       0.61371023       0.74445730       0.49358420 </v>
    <v>       0.38629720       0.74192842       0.48628632 </v>
    <v>       0.49065046       0.74679346       0.62765748 </v>
    <v>       0.52427896       0.40160319       0.26599392 </v>
    <v>       0.50928663       0.25238301       0.54144150 </v>
    <v>       0.49335771       0.35941568       0.73374053 </v>
    <v>       0.48793790       0.56950383       0.73343779 </v>
    <v>       0.52139886       0.34571598       0.32989546 </v>
   </varray>
  </structure>
  <varray name="forces" >
   <v>      -0.00267898       0.00025008       0.01664056 </v>
   <v>      -0.00887853      -0.01277935       0.00501055 </v>
   <v>      -0.00049681      -0.00473385       0.00509868 </v>
   <v>      -0.00351759      -0.00453424      -0.01118559 </v>
   <v>      -0.00240132      -0.01663644       0.01500293 </v>
   <v>      -0.00374280      -0.00703362      -0.00351957 </v>
   <v>      -0.00508876       0.00014510       0.01420878 </v>
   <v>      -0.00728317      -0.02163543       0.00438839 </v>
   <v>      -0.00886027       0.01732668       0.01169798 </v>
   <v>       0.00803991       0.01689116       0.01317928 </v>
   <v>       0.00026009       0.00858539      -0.00813368 </v>
   <v>       0.00367862      -0.02567677      -0.03519016 </v>
   <v>      -0.00115793       0.01328511       0.01726559 </v>
   <v>      -0.00154271       0.00537463       0.00434248 </v>
   <v>       0.00266036      -0.00660780      -0.02207799 </v>
   <v>      -0.00032635      -0.00500109       0.00246236 </v>
  </varray>
  <varray name="stress" >
   <v>      -0.32602826      -0.08757625      -0.02836530 </v>
   <v>      -0.08757626      -0.08777530       0.16402308 </v>
   <v>      -0.02836531       0.16402309       0.00314330 </v>
  </varray>
  <energy>
   <i name="e_fr_energy">    -99.57056342 </i>
   <i name="e_wo_entrp">    -99.57636133 </i>
   <i name="e_0_energy">    -99.57249606 </i>
   <i name="kinetic">      0.96971402 </i>
   <i name="lattice kinetic">      0.00000000 </i>
   <i name="nosepot">      0.00000000 </i>
   <i name="nosekinetic">      0.00000000 </i>
   <i name="total">    -98.60084940 </i>
  </energy>
  <time name="totalsc">   18.83   19.47</time>
 </calculation>
 <calculation>
  <scstep>
   <time name="diag">    0.08    0.08</time>
   <time name="diis">    0.33    0.33</time>
   <time name="orth">    0.00    0.00</time>
   <time name="total">    0.67    0.68</time>
   <energy>
    <i name="alphaZ">      9.73354436 </i>
    <i name="ewald">   1840.79468746 </i>
    <i name="hartreedc">  -3716.65425080 </i>
    <i name="XCdc">    181.40864948 </i>
    <i name="pawpsdc">   4095.29614476 </i>
    <i name="pawaedc">  -4107.51854197 </i>
    <i name="eentropy">      0.00579791 </i>
    <i name="bandstr">   -611.95535071 </i>
    <i name="atom">   2209.41246822 </i>
    <i name="e_fr_energy">    -99.47685128 </i>
    <i name="e_wo_entrp">    -99.48264918 </i>
    <i name="e_0_energy">    -99.47878391 </i>
   </energy>
  </scstep>
  <scstep>
   <time name="diag">    0.08    0.08</time>
   <time name="diis">    0.31    0.32</time>
   <time name="orth">    0.00    0.00</time>
   <time name="total">    0.65    0.66</time>
   <energy>
    <i name="e_fr_energy">    -99.49966850 </i>
    <i name="e_wo_entrp">    -99.50546641 </i>
    <i name="e_0_energy">    -99.50160114 </i>
   </energy>
  </scstep>
  <scstep>
   <time name="diag">    0.08    0.08</time>
   <time name="diis">    0.31    0.32</time>
   <time name="orth">    0.01    0.01</time>
   <time name="total">    0.64    0.65</time>
   <energy>
    <i name="e_fr_energy">    -99.50233516 </i>
    <i name="e_wo_entrp">    -99.50813306 </i>
    <i name="e_0_energy">    -99.50426779 </i>
   </energy>
  </scstep>
  <scstep>
   <time name="diag">    0.09    0.09</time>
   <time name="diis">    0.30    0.30</time>
   <time name="orth">    0.00    0.00</time>
   <time name="total">    0.68    0.69</time>
   <energy>
    <i name="e_fr_energy">    -99.50256491 </i>
    <i name="e_wo_entrp">    -99.50836282 </i>
    <i name="e_0_energy">    -99.50449755 </i>
   </energy>
  </scstep>
  <scstep>
   <time name="diag">    0.07    0.08</time>
   <time name="diis">    0.33    0.33</time>
   <time name="orth">    0.00    0.00</time>
   <time name="total">    0.70    0.71</time>
   <energy>
    <i name="e_fr_energy">    -99.50281765 </i>
    <i name="e_wo_entrp">    -99.50861555 </i>
    <i name="e_0_energy">    -99.50475028 </i>
   </energy>
  </scstep>
  <scstep>
   <time name="diag">    0.08    0.08</time>
   <time name="diis">    0.34    0.34</time>
   <time name="orth">    0.00    0.00</time>
   <time name="total">    0.69    0.70</time>
   <energy>
    <i name="e_fr_energy">    -99.50284335 </i>
    <i name="e_wo_entrp">    -99.50864126 </i>
    <i name="e_0_energy">    -99.50477599 </i>
   </energy>
  </scstep>
  <scstep>
   <time name="diag">    0.08    0.09</time>
   <time name="diis">    0.25    0.25</time>
   <time name="orth">    0.00    0.00</time>
   <time name="total">    0.61    0.62</time>
   <energy>
    <i name="e_fr_energy">    -99.50286435 </i>
    <i name="e_wo_entrp">    -99.50866226 </i>
    <i name="e_0_energy">    -99.50479699 </i>
   </energy>
  </scstep>
  <scstep>
   <time name="diag">    0.04    0.04</time>
   <time name="diis">    0.22    0.22</time>
   <time name="orth">    0.00    0.00</time>
   <time name="total">    0.50    0.50</time>
   <energy>
    <i name="e_fr_energy">    -99.50287932 </i>
    <i name="e_wo_entrp">    -99.50867722 </i>
    <i name="e_0_energy">    -99.50481195 </i>
   </energy>
  </scstep>
  <scstep>
   <time name="diag">    0.09    0.09</time>
   <time name="diis">    0.21    0.21</time>
   <time name="orth">    0.00    0.00</time>
   <time name="total">    0.58    0.59</time>
   <energy>
    <i name="e_fr_energy">    -99.50290900 </i>
    <i name="e_wo_entrp">    -99.50870691 </i>
    <i name="e_0_energy">    -99.50484164 </i>
   </energy>
  </scstep>
  <scstep>
   <time name="diag">    0.09    0.09</time>
   <time name="diis">    0.20    0.21</time>
   <time name="orth">    0.00    0.00</time>
   <time name="total">    0.53    0.54</time>
   <energy>
    <i name="alphaZ">      9.73354436 </i>
    <i name="ewald">   1840.79468746 </i>
    <i name="hartreedc">  -3717.85850417 </i>
    <i name="XCdc">    181.46293781 </i>
    <i name="pawpsdc">   4119.64105909 </i>
    <i name="pawaedc">  -4131.87094421 </i>
    <i name="eentropy">      0.00579791 </i>
    <i name="bandstr">   -610.82396504 </i>
    <i name="atom">   2209.41246822 </i>
    <i name="e_fr_energy">    -99.50291858 </i>
    <i name="e_wo_entrp">    -99.50871648 </i>
    <i name="e_0_energy">    -99.50485121 </i>
   </energy>
  </scstep>
  <structure>
   <crystal>
    <varray name="basis" >
     <v>       7.75610000       0.00000000       0.00000000 </v>
     <v>       0.00000000      11.83610000       0.00000000 </v>
     <v>       0.00000000       0.00000000      11.23020000 </v>
    </varray>
    <i name="volume">   1030.95454200 </i>
    <varray name="rec_basis" >
     <v>       0.12893078       0.00000000       0.00000000 </v>
     <v>       0.00000000       0.08448729       0.00000000 </v>
     <v>       0.00000000       0.00000000       0.08904561 </v>
    </varray>
   </crystal>
   <varray name="positions" >
    <v>       0.49675836       0.71144520       0.53743149 </v>
    <v>       0.50146818       0.58415218       0.54318398 </v>
    <v>       0.50849169       0.52162093       0.43921470 </v>
    <v>       0.51183603       0.40318394       0.43535167 </v>
    <v>       0.50641329       0.34464919       0.54235136 </v>
    <v>       0.49740040       0.40531112       0.64895369 </v>
    <v>       0.49562923       0.52295898       0.65018555 </v>
    <v>       0.51623738       0.57519615       0.32866771 </v>
    <v>       0.61391922       0.74737697       0.49447885 </v>
    <v>       0.38666035       0.73995217       0.48318032 </v>
    <v>       0.49104736       0.74672461       0.62766669 </v>
    <v>       0.52328142       0.40093840       0.26588252 </v>
    <v>       0.50593975       0.25274813       0.54239976 </v>
    <v>       0.49738643       0.36044268       0.73069894 </v>
    <v>       0.49243910       0.56777927       0.73100144 </v>
    <v>       0.52152394       0.34540387       0.33048287 </v>
   </varray>
  </structure>
  <varray name="forces" >
   <v>       0.42248667       0.00247027      -0.11375457 </v>
   <v>      -0.05020254       0.37274568      -0.11698202 </v>
   <v>       0.09946027      -0.28734781      -0.57655242 </v>
   <v>       0.02362893       0.18080228      -0.07949446 </v>
   <v>      -0.15155272       0.02048246       0.42119735 </v>
   <v>       0.16404637       0.34837669      -0.82362053 </v>
   <v>       0.08551215      -0.55651004      -1.30811867 </v>
   <v>      -0.07438979      -0.08520190       0.38614905 </v>
   <v>      -0.27827242      -0.25690437       0.11535207 </v>
   <v>       0.01774105       0.07992936       0.20117977 </v>
   <v>      -0.19209905       0.06681754      -0.04638013 </v>
   <v>       0.00934059      -0.10052141       0.06507373 </v>
   <v>       0.06147194      -0.07228076      -0.07406004 </v>
   <v>      -0.08762668      -0.55234853       0.94834757 </v>
   <v>      -0.07865866       0.70397842       1.27973829 </v>
   <v>      -0.00205453       0.14310766      -0.23513301 </v>
  </varray>
  <varray name="stress" >
   <v>      -0.69522787      -0.54942064      -0.20467997 </v>
   <v>      -0.54942067       0.83664989       0.80190035 </v>
   <v>      -0.20467997       0.80190035       3.23728499 </v>
  </varray>
  <energy>
   <i name="e_fr_energy">    -99.50291858 </i>
   <i name="e_wo_entrp">    -99.50871648 </i>
   <i name="e_0_energy">    -99.50485121 </i>
   <i name="kinetic">      0.90561185 </i>
   <i name="lattice kinetic">      0.00000000 </i>
   <i name="nosepot">      0.00000640 </i>
   <i name="nosekinetic">      0.00000000 </i>
   <i name="total">    -98.59730033 </i>
  </energy>
  <time name="totalsc">    7.49    7.64</time>
 </calculation>
 <calculation>
  <scstep>
   <time name="diag">    0.07    0.07</time>
   <time name="diis">    0.29    0.30</time>
   <time name="orth">    0.00    0.00</time>
   <time name="total">    0.65    0.66</time>
   <energy>
    <i name="alphaZ">      9.73354436 </i>
    <i name="ewald">   1842.69794485 </i>
    <i name="hartreedc">  -3720.16237198 </i>
    <i name="XCdc">    181.57748869 </i>
    <i name="pawpsdc">   4142.58353937 </i>
    <i name="pawaedc">  -4154.82053869 </i>
    <i name="eentropy">      0.00579791 </i>
    <i name="bandstr">   -610.39140133 </i>
    <i name="atom">   2209.41246822 </i>
    <i name="e_fr_energy">    -99.36352860 </i>
    <i name="e_wo_entrp">    -99.36932651 </i>
    <i name="e_0_energy">    -99.36546124 </i>
   </energy>
  </scstep>
  <scstep>
   <time name="diag">    0.08    0.08</time>
   <time name="diis">    0.31    0.31</time>
   <time name="orth">    0.01    0.01</time>
   <time name="total">    0.66    0.67</time>
   <energy>
    <i name="e_fr_energy">    -99.36438922 </i>
    <i name="e_wo_entrp">    -99.37018712 </i>
    <i name="e_0_energy">    -99.36632185 </i>
   </energy>
  </scstep>
  <scstep>
   <time name="diag">    0.07    0.07</time>
   <time name="diis">    0.26    0.27</time>
   <time name="orth">    0.00    0.00</time>
   <time name="total">    0.56    0.57</time>
   <energy>
    <i name="e_fr_energy">    -99.36448257 </i>
    <i name="e_wo_entrp">    -99.37028047 </i>
    <i name="e_0_energy">    -99.36641520 </i>
   </energy>
  </scstep>
  <scstep>
   <time name="diag">    0.09    0.09</time>
   <time name="diis">    0.34    0.35</time>
   <time name="orth">    0.00    0.00</time>
   <time name="total">    0.68    0.69</time>
   <energy>
    <i name="e_fr_energy">    -99.36451316 </i>
    <i name="e_wo_entrp">    -99.37031106 </i>
    <i name="e_0_energy">    -99.36644579 </i>
   </energy>
  </scstep>
  <scstep>
   <time name="diag">    0.09    0.09</time>
   <time name="diis">    0.28    0.29</time>
   <time name="orth">    0.00    0.00</time>
   <time name="total">    0.63    0.64</time>
   <energy>
    <i name="e_fr_energy">    -99.36452792 </i>
    <i name="e_wo_entrp">    -99.37032582 </i>
    <i name="e_0_energy">    -99.36646055 </i>
   </energy>
  </scstep>
  <scstep>
   <time name="diag">    0.09    0.09</time>
   <time name="diis">    0.22    0.22</time>
   <time name="orth">    0.00    0.00</time>
   <time name="total">    0.54    0.55</time>
   <energy>
    <i name="alphaZ">      9.73354436 </i>
    <i name="ewald">   1842.69794485 </i>
    <i name="hartreedc">  -3719.76820722 </i>
    <i name="XCdc">    181.55097380 </i>
    <i name="pawpsdc">   4137.69946886 </i>
    <i name="pawaedc">  -4149.93335492 </i>
    <i name="eentropy">      0.00579791 </i>
    <i name="bandstr">   -610.76317075 </i>
    <i name="atom">   2209.41246822 </i>
    <i name="e_fr_energy">    -99.36453489 </i>
    <i name="e_wo_entrp">    -99.37033280 </i>
    <i name="e_0_energy">    -99.36646753 </i>
   </energy>
  </scstep>
  <structure>
   <crystal>
    <varray name="basis" >
     <v>       7.75610000       0.00000000       0.00000000 </v>
     <v>       0.00000000      11.83610000       0.00000000 </v>
     <v>       0.00000000       0.00000000      11.23020000 </v>
    </varray>
    <i name="volume">   1030.95454200 </i>
    <varray name="rec_basis" >
     <v>       0.12893078       0.00000000       0.00000000 </v>
     <v>       0.00000000       0.08448729       0.00000000 </v>
     <v>       0.00000000       0.00000000       0.08904561 </v>
    </varray>
   </crystal>
   <varray name="positions" >
    <v>       0.49593261       0.71170392       0.53724436 </v>
    <v>       0.50232681       0.58394602       0.54388611 </v>
    <v>       0.50774222       0.52208311       0.44007244 </v>
    <v>       0.51106325       0.40324669       0.43531683 </v>
    <v>       0.50605261       0.34481444       0.54157524 </v>
    <v>       0.49691043       0.40548796       0.64834496 </v>
    <v>       0.49632433       0.52266157       0.65080290 </v>
    <v>       0.51693633       0.57507166       0.32807048 </v>
    <v>       0.61378234       0.75008714       0.49547231 </v>
    <v>       0.38704587       0.73804104       0.48024689 </v>
    <v>       0.49120560       0.74671019       0.62763576 </v>
    <v>       0.52229582       0.40019163       0.26582673 </v>
    <v>       0.50266966       0.25305428       0.54329410 </v>
    <v>       0.50130643       0.36101936       0.72847185 </v>
    <v>       0.49684274       0.56662854       0.72966430 </v>
    <v>       0.52164917       0.34509901       0.33105735 </v>
   </varray>
  </structure>
  <varray name="forces" >
   <v>       0.71285356      -0.01307177      -0.20838166 </v>
   <v>      -0.08554882       0.73195633      -0.22779039 </v>
   <v>       0.21054499      -0.56187399      -1.11002831 </v>
   <v>       0.03634072       0.36748174      -0.17300950 </v>
   <v>      -0.29723197       0.00714569       0.79072953 </v>
   <v>       0.27086407       0.50780445      -1.29652439 </v>
   <v>       0.11788384      -0.89833772      -2.28850158 </v>
   <v>      -0.11900707      -0.11936424       0.70029775 </v>
   <v>      -0.45387028      -0.48508726       0.16344123 </v>
   <v>       0.03963160       0.13535116       0.38413102 </v>
   <v>      -0.36877850       0.11566925      -0.07569772 </v>
   <v>       0.01781877      -0.13937583       0.12555469 </v>
   <v>       0.12085613      -0.11257825      -0.15916319 </v>
   <v>      -0.11845234      -0.93950751       1.58194019 </v>
   <v>      -0.08591248       1.21176279       2.22736708 </v>
   <v>      -0.04249451       0.21364483      -0.44819025 </v>
  </varray>
  <varray name="stress" >
   <v>      -0.98892317      -0.91850356      -0.24566591 </v>
   <v>      -0.91850356       1.46449462       1.28722337 </v>
   <v>      -0.24566590       1.28722336       5.55108268 </v>
  </varray>
  <energy>
   <i name="e_fr_energy">    -99.36453489 </i>
   <i name="e_wo_entrp">    -99.37033280 </i>
   <i name="e_0_energy">    -99.36646753 </i>
   <i name="kinetic">      0.77757892 </i>
   <i name="lattice kinetic">      0.00000000 </i>
   <i name="nosepot">     -0.00144454 </i>
   <i name="nosekinetic">      0.00017758 </i>
   <i name="total">    -98.58822294 </i>
  </energy>
  <time name="totalsc">    4.97    5.10</time>
 </calculation>
 <calculation>
  <scstep>
   <time name="diag">    0.08    0.08</time>
   <time name="diis">    0.31    0.32</time>
   <time name="orth">    0.00    0.00</time>
   <time name="total">    0.66    0.67</time>
   <energy>
    <i name="alphaZ">      9.73354436 </i>
    <i name="ewald">   1841.62815415 </i>
    <i name="hartreedc">  -3718.89933250 </i>
    <i name="XCdc">    181.52606569 </i>
    <i name="pawpsdc">   4142.51588015 </i>
    <i name="pawaedc">  -4154.74729217 </i>
    <i name="eentropy">      0.00579791 </i>
    <i name="bandstr">   -610.46020730 </i>
    <i name="atom">   2209.41246822 </i>
    <i name="e_fr_energy">    -99.28492149 </i>
    <i name="e_wo_entrp">    -99.29071940 </i>
    <i name="e_0_energy">    -99.28685413 </i>
   </energy>
  </scstep>
  <scstep>
   <time name="diag">    0.07    0.07</time>
   <time name="diis">    0.25    0.26</time>
   <time name="orth">    0.00    0.00</time>
   <time name="total">    0.55    0.56</time>
   <energy>
    <i name="e_fr_energy">    -99.28557474 </i>
    <i name="e_wo_entrp">    -99.29137264 </i>
    <i name="e_0_energy">    -99.28750737 </i>
   </energy>
  </scstep>
  <scstep>
   <time name="diag">    0.08    0.08</time>
   <time name="diis">    0.33    0.34</time>
   <time name="orth">    0.00    0.00</time>
   <time name="total">    0.64    0.65</time>
   <energy>
    <i name="e_fr_energy">    -99.28576160 </i>
    <i name="e_wo_entrp">    -99.29155950 </i>
    <i name="e_0_energy">    -99.28769423 </i>
   </energy>
  </scstep>
  <scstep>
   <time name="diag">    0.08    0.08</time>
   <time name="diis">    0.34    0.35</time>
   <time name="orth">    0.00    0.00</time>
   <time name="total">    0.68    0.69</time>
   <energy>
    <i name="e_fr_energy">    -99.28581765 </i>
    <i name="e_wo_entrp">    -99.29161555 </i>
    <i name="e_0_energy">    -99.28775028 </i>
   </energy>
  </scstep>
  <scstep>
   <time name="diag">    0.09    0.09</time>
   <time name="diis">    0.27    0.27</time>
   <time name="orth">    0.01    0.01</time>
   <time name="total">    0.60    0.62</time>
   <energy>
    <i name="e_fr_energy">    -99.28583180 </i>
    <i name="e_wo_entrp">    -99.29162971 </i>
    <i name="e_0_energy">    -99.28776444 </i>
   </energy>
  </scstep>
  <scstep>
   <time name="diag">    0.09    0.09</time>
   <time name="diis">    0.20    0.20</time>
   <time name="orth">    0.00    0.00</time>
   <time name="total">    0.52    0.53</time>
   <energy>
    <i name="alphaZ">      9.73354436 </i>
    <i name="ewald">   1841.62815415 </i>
    <i name="hartreedc">  -3718.92549531 </i>
    <i name="XCdc">    181.53208046 </i>
    <i name="pawpsdc">   4139.71270054 </i>
    <i name="pawaedc">  -4151.94150717 </i>
    <i name="eentropy">      0.00579791 </i>
    <i name="bandstr">   -610.44358445 </i>
    <i name="atom">   2209.41246822 </i>
    <i name="e_fr_energy">    -99.28584130 </i>
    <i name="e_wo_entrp">    -99.29163921 </i>
    <i name="e_0_energy">    -99.28777394 </i>
   </energy>
  </scstep>
  <structure>
   <crystal>
    <varray name="basis" >
     <v>       7.75610000       0.00000000       0.00000000 </v>
     <v>       0.00000000      11.83610000       0.00000000 </v>
     <v>       0.00000000       0.00000000      11.23020000 </v>
    </varray>
    <i name="volume">   1030.95454200 </i>
    <varray name="rec_basis" >
     <v>       0.12893078       0.00000000       0.00000000 </v>
     <v>       0.00000000       0.08448729       0.00000000 </v>
     <v>       0.00000000       0.00000000       0.08904561 </v>
    </varray>
   </crystal>
   <varray name="positions" >
    <v>       0.49517995       0.71196200       0.53704213 </v>
    <v>       0.50317830       0.58378913       0.54457308 </v>
    <v>       0.50701389       0.52250767       0.44085211 </v>
    <v>       0.51029351       0.40333435       0.43526965 </v>
    <v>       0.50566102       0.34498029       0.54085465 </v>
    <v>       0.49644824       0.40569942       0.64764259 </v>
    <v>       0.49703312       0.52230256       0.65125745 </v>
    <v>       0.51762898       0.57494172       0.32750414 </v>
    <v>       0.61308067       0.75240552       0.49660788 </v>
    <v>       0.38748175       0.73623732       0.47763942 </v>
    <v>       0.49090541       0.74678996       0.62753980 </v>
    <v>       0.52133136       0.39932989       0.26587892 </v>
    <v>       0.49954556       0.25326891       0.54405302 </v>
    <v>       0.50508530       0.36083032       0.72760166 </v>
    <v>       0.50114649       0.56646448       0.73024034 </v>
    <v>       0.52177172       0.34480444       0.33160870 </v>
   </varray>
  </structure>
  <varray name="forces" >
   <v>       0.87713386      -0.06788684      -0.21586916 </v>
   <v>      -0.12709365       1.07068833      -0.34585090 </v>
   <v>       0.32070937      -0.80772099      -1.56362950 </v>
   <v>       0.04671341       0.53332693      -0.25799751 </v>
   <v>      -0.44795811      -0.09140721       1.11504170 </v>
   <v>       0.37226458       0.23011210      -1.03812806 </v>
   <v>       0.11153832      -0.59849823      -2.19446682 </v>
   <v>      -0.16481236      -0.16768740       0.96166322 </v>
   <v>      -0.49490919      -0.63397968       0.14276155 </v>
   <v>       0.05040094       0.18725265       0.53506926 </v>
   <v>      -0.51923201       0.14984398      -0.09712643 </v>
   <v>       0.02781465      -0.12218768       0.11722141 </v>
   <v>       0.17638590      -0.09772636      -0.23476546 </v>
   <v>      -0.15185800      -0.91278765       1.50817152 </v>
   <v>      -0.06762252       1.11383694       2.13242605 </v>
   <v>      -0.05564890       0.23776275      -0.57817861 </v>
  </varray>
  <varray name="stress" >
   <v>      -1.06109428      -1.15930063      -0.29044211 </v>
   <v>      -1.15930063       1.55890371       1.29209950 </v>
   <v>      -0.29044211       1.29209950       5.83770493 </v>
  </varray>
  <energy>
   <i name="e_fr_energy">    -99.28584130 </i>
   <i name="e_wo_entrp">    -99.29163921 </i>
   <i name="e_0_energy">    -99.28777394 </i>
   <i name="kinetic">      0.70302476 </i>
   <i name="lattice kinetic">      0.00000000 </i>
   <i name="nosepot">     -0.00728188 </i>
   <i name="nosekinetic">      0.00160401 </i>
   <i name="total">    -98.58849441 </i>
  </energy>
  <time name="totalsc">    4.88    5.08</time>
 </calculation>
 <calculation>
  <scstep>
   <time name="diag">    0.08    0.09</time>
   <time name="diis">    0.23    0.24</time>
   <time name="orth">    0.00    0.00</time>
   <time name="total">    0.53    0.54</time>
   <energy>
    <i name="alphaZ">      9.73354436 </i>
    <i name="ewald">   1837.87077243 </i>
    <i name="hartreedc">  -3715.53199865 </i>
    <i name="XCdc">    181.41596544 </i>
    <i name="pawpsdc">   4126.89523652 </i>
    <i name="pawaedc">  -4139.11058239 </i>
    <i name="eentropy">      0.00579791 </i>
    <i name="bandstr">   -609.95665782 </i>
    <i name="atom">   2209.41246822 </i>
    <i name="e_fr_energy">    -99.26545398 </i>
    <i name="e_wo_entrp">    -99.27125189 </i>
    <i name="e_0_energy">    -99.26738662 </i>
   </energy>
  </scstep>
  <scstep>
   <time name="diag">    0.08    0.08</time>
   <time name="diis">    0.32    0.32</time>
   <time name="orth">    0.00    0.00</time>
   <time name="total">    0.66    0.66</time>
   <energy>
    <i name="e_fr_energy">    -99.26561170 </i>
    <i name="e_wo_entrp">    -99.27140961 </i>
    <i name="e_0_energy">    -99.26754434 </i>
   </energy>
  </scstep>
  <scstep>
   <time name="diag">    0.08    0.09</time>
   <time name="diis">    0.33    0.33</time>
   <time name="orth">    0.00    0.00</time>
   <time name="total">    0.65    0.66</time>
   <energy>
    <i name="e_fr_energy">    -99.26569168 </i>
    <i name="e_wo_entrp">    -99.27148958 </i>
    <i name="e_0_energy">    -99.26762431 </i>
   </energy>
  </scstep>
  <scstep>
   <time name="diag">    0.09    0.09</time>
   <time name="diis">    0.25    0.26</time>
   <time name="orth">    0.00    0.00</time>
   <time name="total">    0.63    0.64</time>
   <energy>
    <i name="e_fr_energy">    -99.26570536 </i>
    <i name="e_wo_entrp">    -99.27150326 </i>
    <i name="e_0_energy">    -99.26763799 </i>
   </energy>
  </scstep>
  <scstep>
   <time name="diag">    0.08    0.09</time>
   <time name="diis">    0.18    0.19</time>
   <time name="orth">    0.00    0.00</time>
   <time name="total">    0.56    0.57</time>
   <energy>
    <i name="e_fr_energy">    -99.26571681 </i>
    <i name="e_wo_entrp">    -99.27151472 </i>
    <i name="e_0_energy">    -99.26764944 </i>
   </energy>
  </scstep>
  <scstep>
   <time name="diag">    0.09    0.09</time>
   <time name="diis">    0.20    0.21</time>
   <time name="orth">    0.00    0.00</time>
   <time name="total">    0.54    0.54</time>
   <energy>
    <i name="alphaZ">      9.73354436 </i>
    <i name="ewald">   1837.87077243 </i>
    <i name="hartreedc">  -3715.60099081 </i>
    <i name="XCdc">    181.42080620 </i>
    <i name="pawpsdc">   4128.78955397 </i>
    <i name="pawaedc">  -4141.00597319 </i>
    <i name="eentropy">      0.00579791 </i>
    <i name="bandstr">   -609.89170152 </i>
    <i name="atom">   2209.41246822 </i>
    <i name="e_fr_energy">    -99.26572243 </i>
    <i name="e_wo_entrp">    -99.27152034 </i>
    <i name="e_0_energy">    -99.26765507 </i>
   </energy>
  </scstep>
  <structure>
   <crystal>
    <varray name="basis" >
     <v>       7.75610000       0.00000000       0.00000000 </v>
     <v>       0.00000000      11.83610000       0.00000000 </v>
     <v>       0.00000000       0.00000000      11.23020000 </v>
    </varray>
    <i name="volume">   1030.95454200 </i>
    <varray name="rec_basis" >
     <v>       0.12893078       0.00000000       0.00000000 </v>
     <v>       0.00000000       0.08448729       0.00000000 </v>
     <v>       0.00000000       0.00000000       0.08904561 </v>
    </varray>
   </crystal>
   <varray name="positions" >
    <v>       0.49451538       0.71221648       0.53682360 </v>
    <v>       0.50402092       0.58370421       0.54523846 </v>
    <v>       0.50631601       0.52287907       0.44152331 </v>
    <v>       0.50952558       0.40345853       0.43520385 </v>
    <v>       0.50522161       0.34514052       0.54021083 </v>
    <v>       0.49602306       0.40592734       0.64686271 </v>
    <v>       0.49775716       0.52190106       0.65155682 </v>
    <v>       0.51831440       0.57480383       0.32697892 </v>
    <v>       0.61175921       0.75421628       0.49787162 </v>
    <v>       0.38798290       0.73457827       0.47548098 </v>
    <v>       0.48995694       0.74699237       0.62735985 </v>
    <v>       0.52039766       0.39836427       0.26603237 </v>
    <v>       0.49662768       0.25340452       0.54461332 </v>
    <v>       0.50869239       0.35989451       0.72802632 </v>
    <v>       0.50538586       0.56720956       0.73265533 </v>
    <v>       0.52189094       0.34452053       0.33213153 </v>
   </varray>
  </structure>
  <varray name="forces" >
   <v>       0.90666152      -0.18708159      -0.13334733 </v>
   <v>      -0.16074640       1.33224785      -0.48153566 </v>
   <v>       0.41024883      -0.98380342      -1.92353021 </v>
   <v>       0.07305768       0.65499381      -0.33317405 </v>
   <v>      -0.57524624      -0.27161984       1.39245344 </v>
   <v>       0.54990842      -0.44099253      -0.11620694 </v>
   <v>       0.16202123       0.26321478      -1.12747933 </v>
   <v>      -0.23794119      -0.16852685       1.21465368 </v>
   <v>      -0.38943171      -0.68557603       0.05742941 </v>
   <v>       0.03055106       0.23796353       0.62940272 </v>
   <v>      -0.63493661       0.16673952      -0.10980055 </v>
   <v>       0.03670418      -0.05368116       0.04099409 </v>
   <v>       0.22816823      -0.04217505      -0.29837780 </v>
   <v>      -0.24942164      -0.50191553       0.80182791 </v>
   <v>      -0.11284011       0.47097016       1.09181329 </v>
   <v>      -0.08031300       0.21354350      -0.64543985 </v>
  </varray>
  <varray name="stress" >
   <v>      -0.97327404      -1.23729490      -0.54397122 </v>
   <v>      -1.23729490       1.07469939       0.90661384 </v>
   <v>      -0.54397121       0.90661385       4.16222656 </v>
  </varray>
  <energy>
   <i name="e_fr_energy">    -99.26572243 </i>
   <i name="e_wo_entrp">    -99.27152034 </i>
   <i name="e_0_energy">    -99.26765507 </i>
   <i name="kinetic">      0.68432488 </i>
   <i name="lattice kinetic">      0.00000000 </i>
   <i name="nosepot">     -0.01935049 </i>
   <i name="nosekinetic">      0.00494264 </i>
   <i name="total">    -98.59580540 </i>
  </energy>
  <time name="totalsc">    4.74    4.92</time>
 </calculation>
 <calculation>
  <scstep>
   <time name="diag">    0.07    0.07</time>
   <time name="diis">    0.31    0.32</time>
   <time name="orth">    0.00    0.00</time>
   <time name="total">    0.63    0.64</time>
   <energy>
    <i name="alphaZ">      9.73354436 </i>
    <i name="ewald">   1833.08057115 </i>
    <i name="hartreedc">  -3711.04725796 </i>
    <i name="XCdc">    181.27070144 </i>
    <i name="pawpsdc">   4110.13558360 </i>
    <i name="pawaedc">  -4122.33544317 </i>
    <i name="eentropy">      0.00579791 </i>
    <i name="bandstr">   -609.45756338 </i>
    <i name="atom">   2209.41246822 </i>
    <i name="e_fr_energy">    -99.20159783 </i>
    <i name="e_wo_entrp">    -99.20739573 </i>
    <i name="e_0_energy">    -99.20353046 </i>
   </energy>
  </scstep>
  <scstep>
   <time name="diag">    0.08    0.08</time>
   <time name="diis">    0.31    0.32</time>
   <time name="orth">    0.00    0.00</time>
   <time name="total">    0.67    0.68</time>
   <energy>
    <i name="e_fr_energy">    -99.20176820 </i>
    <i name="e_wo_entrp">    -99.20756610 </i>
    <i name="e_0_energy">    -99.20370083 </i>
   </energy>
  </scstep>
  <scstep>
   <time name="diag">    0.08    0.08</time>
   <time name="diis">    0.32    0.33</time>
   <time name="orth">    0.01    0.01</time>
   <time name="total">    0.68    0.69</time>
   <energy>
    <i name="e_fr_energy">    -99.20179898 </i>
    <i name="e_wo_entrp">    -99.20759688 </i>
    <i name="e_0_energy">    -99.20373161 </i>
   </energy>
  </scstep>
  <scstep>
   <time name="diag">    0.09    0.09</time>
   <time name="diis">    0.28    0.28</time>
   <time name="orth">    0.00    0.00</time>
   <time name="total">    0.61    0.62</time>
   <energy>
    <i name="e_fr_energy">    -99.20181065 </i>
    <i name="e_wo_entrp">    -99.20760855 </i>
    <i name="e_0_energy">    -99.20374328 </i>
   </energy>
  </scstep>
  <scstep>
   <time name="diag">    0.09    0.09</time>
   <time name="diis">    0.20    0.20</time>
   <time name="orth">    0.00    0.00</time>
   <time name="total">    0.58    0.59</time>
   <energy>
    <i name="e_fr_energy">    -99.20181218 </i>
    <i name="e_wo_entrp">    -99.20761008 </i>
    <i name="e_0_energy">    -99.20374481 </i>
   </energy>
  </scstep>
  <scstep>
   <time name="diag">    0.08    0.08</time>
   <time name="diis">    0.22    0.22</time>
   <time name="orth">    0.00    0.00</time>
   <time name="total">    0.54    0.55</time>
   <energy>
    <i name="alphaZ">      9.73354436 </i>
    <i name="ewald">   1833.08057115 </i>
    <i name="hartreedc">  -3711.18621937 </i>
    <i name="XCdc">    181.27746184 </i>
    <i name="pawpsdc">   4113.61933003 </i>
    <i name="pawaedc">  -4125.82246732 </i>
    <i name="eentropy">      0.00579791 </i>
    <i name="bandstr">   -609.32229992 </i>
    <i name="atom">   2209.41246822 </i>
    <i name="e_fr_energy">    -99.20181310 </i>
    <i name="e_wo_entrp">    -99.20761101 </i>
    <i name="e_0_energy">    -99.20374574 </i>
   </energy>
  </scstep>
  <structure>
   <crystal>
    <varray name="basis" >
     <v>       7.75610000       0.00000000       0.00000000 </v>
     <v>       0.00000000      11.83610000       0.00000000 </v>
     <v>       0.00000000       0.00000000      11.23020000 </v>
    </varray>
    <i name="volume">   1030.95454200 </i>
    <varray name="rec_basis" >
     <v>       0.12893078       0.00000000       0.00000000 </v>
     <v>       0.00000000       0.08448729       0.00000000 </v>
     <v>       0.00000000       0.00000000       0.08904561 </v>
    </varray>
   </crystal>
   <varray name="positions" >
    <v>       0.49394024       0.71246021       0.53659334 </v>
    <v>       0.50485396       0.58370937       0.54587415 </v>
    <v>       0.50565566       0.52318636       0.44206130 </v>
    <v>       0.50875958       0.40362831       0.43511320 </v>
    <v>       0.50471931       0.34528349       0.53966148 </v>
    <v>       0.49565210       0.40612700       0.64606786 </v>
    <v>       0.49850424       0.52151427       0.65177720 </v>
    <v>       0.51899007       0.57465755       0.32650425 </v>
    <v>       0.60994129       0.75548033       0.49919455 </v>
    <v>       0.38852663       0.73310073       0.47384786 </v>
    <v>       0.48820834       0.74733282       0.62708336 </v>
    <v>       0.51950281       0.39734700       0.26622199 </v>
    <v>       0.49397197       0.25350666       0.54492030 </v>
    <v>       0.51201713       0.35854045       0.72914560 </v>
    <v>       0.50951850       0.56834601       0.73603092 </v>
    <v>       0.52200528       0.34424525       0.33262331 </v>
   </varray>
  </structure>
  <varray name="forces" >
   <v>       0.80485147      -0.35175064       0.04239098 </v>
   <v>      -0.20663289       1.53034207      -0.63035858 </v>
   <v>       0.48281050      -1.07781341      -2.18035393 </v>
   <v>       0.09788240       0.74349398      -0.36685397 </v>
   <v>      -0.67856265      -0.42031188       1.55297023 </v>
   <v>       0.75065136      -1.21617047       0.99294888 </v>
   <v>       0.29897541       1.21913356       0.12429124 </v>
   <v>      -0.25057440      -0.17128431       1.38932247 </v>
   <v>      -0.15208825      -0.63552220      -0.07728921 </v>
   <v>      -0.02811372       0.28553297       0.65295585 </v>
   <v>      -0.70857267       0.16578263      -0.11790137 </v>
   <v>       0.04343537       0.03915698      -0.07205214 </v>
   <v>       0.27484021       0.02235345      -0.34636075 </v>
   <v>      -0.39908110       0.02885263      -0.08315458 </v>
   <v>      -0.22591391      -0.27525785      -0.15529752 </v>
   <v>      -0.09298499       0.14298648      -0.67902934 </v>
  </varray>
  <varray name="stress" >
   <v>      -0.67056080      -1.18378801      -1.03448419 </v>
   <v>      -1.18378803       0.45745631       0.38514217 </v>
   <v>      -1.03448420       0.38514216       1.87210122 </v>
  </varray>
  <energy>
   <i name="e_fr_energy">    -99.20181310 </i>
   <i name="e_wo_entrp">    -99.20761101 </i>
   <i name="e_0_energy">    -99.20374574 </i>
   <i name="kinetic">      0.63262172 </i>
   <i name="lattice kinetic">      0.00000000 </i>
   <i name="nosepot">     -0.03830079 </i>
   <i name="nosekinetic">      0.01060396 </i>
   <i name="total">    -98.59688820 </i>
  </energy>
  <time name="totalsc">    4.86    4.97</time>
 </calculation>
 <calculation>
  <scstep>
   <time name="diag">    0.05    0.05</time>
   <time name="diis">    0.30    0.31</time>
   <time name="orth">    0.00    0.00</time>
   <time name="total">    0.64    0.66</time>
   <energy>
    <i name="alphaZ">      9.73354436 </i>
    <i name="ewald">   1828.80051373 </i>
    <i name="hartreedc">  -3706.91059765 </i>
    <i name="XCdc">    181.15013955 </i>
    <i name="pawpsdc">   4097.67655335 </i>
    <i name="pawaedc">  -4109.86714402 </i>
    <i name="eentropy">      0.00579791 </i>
    <i name="bandstr">   -609.07703308 </i>
    <i name="atom">   2209.41246822 </i>
    <i name="e_fr_energy">    -99.07575762 </i>
    <i name="e_wo_entrp">    -99.08155553 </i>
    <i name="e_0_energy">    -99.07769026 </i>
   </energy>
  </scstep>
  <scstep>
   <time name="diag">    0.08    0.08</time>
   <time name="diis">    0.31    0.32</time>
   <time name="orth">    0.01    0.01</time>
   <time name="total">    0.67    0.68</time>
   <energy>
    <i name="e_fr_energy">    -99.07597641 </i>
    <i name="e_wo_entrp">    -99.08177431 </i>
    <i name="e_0_energy">    -99.07790904 </i>
   </energy>
  </scstep>
  <scstep>
   <time name="diag">    0.08    0.08</time>
   <time name="diis">    0.31    0.31</time>
   <time name="orth">    0.00    0.00</time>
   <time name="total">    0.64    0.65</time>
   <energy>
    <i name="e_fr_energy">    -99.07599645 </i>
    <i name="e_wo_entrp">    -99.08179435 </i>
    <i name="e_0_energy">    -99.07792908 </i>
   </energy>
  </scstep>
  <scstep>
   <time name="diag">    0.08    0.08</time>
   <time name="diis">    0.32    0.33</time>
   <time name="orth">    0.00    0.00</time>
   <time name="total">    0.66    0.68</time>
   <energy>
    <i name="e_fr_energy">    -99.07600765 </i>
    <i name="e_wo_entrp">    -99.08180555 </i>
    <i name="e_0_energy">    -99.07794028 </i>
   </energy>
  </scstep>
  <scstep>
   <time name="diag">    0.09    0.09</time>
   <time name="diis">    0.21    0.21</time>
   <time name="orth">    0.00    0.00</time>
   <time name="total">    0.59    0.59</time>
   <energy>
    <i name="e_fr_energy">    -99.07601102 </i>
    <i name="e_wo_entrp">    -99.08180892 </i>
    <i name="e_0_energy">    -99.07794365 </i>
   </energy>
  </scstep>
  <scstep>
   <time name="diag">    0.08    0.08</time>
   <time name="diis">    0.19    0.20</time>
   <time name="orth">    0.00    0.00</time>
   <time name="total">    0.52    0.53</time>
   <energy>
    <i name="alphaZ">      9.73354436 </i>
    <i name="ewald">   1828.80051373 </i>
    <i name="hartreedc">  -3707.10303359 </i>
    <i name="XCdc">    181.15961908 </i>
    <i name="pawpsdc">   4101.66689953 </i>
    <i name="pawaedc">  -4113.86018008 </i>
    <i name="eentropy">      0.00579791 </i>
    <i name="bandstr">   -608.89164182 </i>
    <i name="atom">   2209.41246822 </i>
    <i name="e_fr_energy">    -99.07601268 </i>
    <i name="e_wo_entrp">    -99.08181058 </i>
    <i name="e_0_energy">    -99.07794531 </i>
   </energy>
  </scstep>
  <structure>
   <crystal>
    <varray name="basis" >
     <v>       7.75610000       0.00000000       0.00000000 </v>
     <v>       0.00000000      11.83610000       0.00000000 </v>
     <v>       0.00000000       0.00000000      11.23020000 </v>
    </varray>
    <i name="volume">   1030.95454200 </i>
    <varray name="rec_basis" >
     <v>       0.12893078       0.00000000       0.00000000 </v>
     <v>       0.00000000       0.08448729       0.00000000 </v>
     <v>       0.00000000       0.00000000       0.08904561 </v>
    </varray>
   </crystal>
   <varray name="positions" >
    <v>       0.49344211       0.71268259       0.53636313 </v>
    <v>       0.50567510       0.58381887       0.54647159 </v>
    <v>       0.50503779       0.52342347       0.44244838 </v>
    <v>       0.50799471       0.40385064       0.43499477 </v>
    <v>       0.50414035       0.34539925       0.53921713 </v>
    <v>       0.49535490       0.40624578       0.64533486 </v>
    <v>       0.49929109       0.52120600       0.65200878 </v>
    <v>       0.51965702       0.57450199       0.32608692 </v>
    <v>       0.60791171       0.75623787       0.50046584 </v>
    <v>       0.38904143       0.73183986       0.47275961 </v>
    <v>       0.48555260       0.74781300       0.62670143 </v>
    <v>       0.51865173       0.39634975       0.26635125 </v>
    <v>       0.49162902       0.25362813       0.54493123 </v>
    <v>       0.51488125       0.35719402       0.73020577 </v>
    <v>       0.51341663       0.56926984       0.73931143 </v>
    <v>       0.52211357       0.34397389       0.33308385 </v>
   </varray>
  </structure>
  <varray name="forces" >
   <v>       0.59318140      -0.54247929       0.29209778 </v>
   <v>      -0.25469491       1.59864479      -0.77767504 </v>
   <v>       0.56974293      -1.10060858      -2.31582945 </v>
   <v>       0.11734981       0.75414113      -0.37116482 </v>
   <v>      -0.75846185      -0.51673684       1.62718920 </v>
   <v>       0.93310376      -1.80914539       1.88765669 </v>
   <v>       0.43398683       1.91485423       1.02543666 </v>
   <v>      -0.27638892      -0.17530032       1.51724785 </v>
   <v>       0.17543500      -0.49757421      -0.23520597 </v>
   <v>      -0.11885978       0.32543441       0.60150505 </v>
   <v>      -0.73331248       0.14855570      -0.12657946 </v>
   <v>       0.04880366       0.11529898      -0.17030356 </v>
   <v>       0.31229871       0.06279196      -0.37525335 </v>
   <v>      -0.54876904       0.45395320      -0.77583161 </v>
   <v>      -0.35212346      -0.81669719      -1.09181314 </v>
   <v>      -0.12325562       0.07683536      -0.70865721 </v>
  </varray>
  <varray name="stress" >
   <v>      -0.19877570      -0.97639975      -1.53116682 </v>
   <v>      -0.97639976       0.07021835      -0.15513282 </v>
   <v>      -1.53116682      -0.15513283       0.01882527 </v>
  </varray>
  <energy>
   <i name="e_fr_energy">    -99.07601268 </i>
   <i name="e_wo_entrp">    -99.08181058 </i>
   <i name="e_0_energy">    -99.07794531 </i>
   <i name="kinetic">      0.52816782 </i>
   <i name="lattice kinetic">      0.00000000 </i>
   <i name="nosepot">     -0.06546024 </i>
   <i name="nosekinetic">      0.02113174 </i>
   <i name="total">    -98.59217337 </i>
  </energy>
  <time name="totalsc">    4.82    4.97</time>
 </calculation>
 <calculation>
  <scstep>
[...]
        <r>  0.0003  0.0009  0.0022  0.0828  0.0000  0.0000  0.0000  0.0000  0.0000 </r>
        <r>  0.0068  0.0004  0.0018  0.0333  0.0000  0.0000  0.0000  0.0000  0.0000 </r>
        <r>  0.0088  0.0000  0.0150  0.0350  0.0000  0.0000  0.0000  0.0000  0.0000 </r>
        <r>  0.0010  0.0001  0.0000  0.0002  0.0000  0.0000  0.0000  0.0000  0.0000 </r>
        <r>  0.0015  0.0003  0.0001  0.0000  0.0000  0.0000  0.0000  0.0000  0.0000 </r>
        <r>  0.0002  0.0000  0.0000  0.0001  0.0000  0.0000  0.0000  0.0000  0.0000 </r>
        <r>  0.0001  0.0010  0.0009  0.0005  0.0000  0.0000  0.0000  0.0000  0.0000 </r>
        <r>  0.0047  0.0000  0.0001  0.0000  0.0000  0.0000  0.0000  0.0000  0.0000 </r>
        <r>  0.0004  0.0001  0.0000  0.0032  0.0000  0.0000  0.0000  0.0000  0.0000 </r>
        <r>  0.0063  0.0000  0.0000  0.0008  0.0000  0.0000  0.0000  0.0000  0.0000 </r>
        <r>  0.0035  0.0015  0.0000  0.0299  0.0000  0.0000  0.0000  0.0000  0.0000 </r>
       </set>
       <set comment="band 26">
        <r>  0.0051  0.0006  0.0000  0.0004  0.0000  0.0000  0.0000  0.0000  0.0000 </r>
        <r>  0.0011  0.0153  0.0002  0.1156  0.0000  0.0000  0.0000  0.0000  0.0000 </r>
        <r>  0.0002  0.0057  0.0002  0.0301  0.0000  0.0000  0.0000  0.0000  0.0000 </r>
        <r>  0.0000  0.0033  0.0041  0.0499  0.0000  0.0000  0.0000  0.0000  0.0000 </r>
        <r>  0.0001  0.0031  0.0070  0.1023  0.0000  0.0000  0.0000  0.0000  0.0000 </r>
        <r>  0.0000  0.0000  0.0012  0.0182  0.0000  0.0000  0.0000  0.0000  0.0000 </r>
        <r>  0.0002  0.0003  0.0009  0.0259  0.0000  0.0000  0.0000  0.0000  0.0000 </r>
        <r>  0.0004  0.0030  0.0012  0.0031  0.0000  0.0000  0.0000  0.0000  0.0000 </r>
        <r>  0.0079  0.0002  0.0000  0.0003  0.0000  0.0000  0.0000  0.0000  0.0000 </r>
        <r>  0.0046  0.0000  0.0001  0.0001  0.0000  0.0000  0.0000  0.0000  0.0000 </r>
        <r>  0.0001  0.0000  0.0002  0.0000  0.0000  0.0000  0.0000  0.0000  0.0000 </r>
        <r>  0.0000  0.0000  0.0000  0.0002  0.0000  0.0000  0.0000  0.0000  0.0000 </r>
        <r>  0.0006  0.0001  0.0002  0.0036  0.0000  0.0000  0.0000  0.0000  0.0000 </r>
        <r>  0.0009  0.0000  0.0000  0.0009  0.0000  0.0000  0.0000  0.0000  0.0000 </r>
        <r>  0.0013  0.0001  0.0000  0.0008  0.0000  0.0000  0.0000  0.0000  0.0000 </r>
        <r>  0.0000  0.0025  0.0003  0.0114  0.0000  0.0000  0.0000  0.0000  0.0000 </r>
       </set>
       <set comment="band 27">
        <r>  0.0043  0.0023  0.0000  0.0009  0.0000  0.0000  0.0000  0.0000  0.0000 </r>
        <r>  0.0006  0.0001  0.0001  0.0116  0.0000  0.0000  0.0000  0.0000  0.0000 </r>
        <r>  0.0004  0.0000  0.0021  0.0035  0.0000  0.0000  0.0000  0.0000  0.0000 </r>
        <r>  0.0000  0.0003  0.0000  0.0214  0.0000  0.0000  0.0000  0.0000  0.0000 </r>
        <r>  0.0051  0.0004  0.0005  0.0031  0.0000  0.0000  0.0000  0.0000  0.0000 </r>
        <r>  0.0000  0.0000  0.0041  0.0042  0.0000  0.0000  0.0000  0.0000  0.0000 </r>
        <r>  0.0036  0.0004  0.0045  0.0215  0.0000  0.0000  0.0000  0.0000  0.0000 </r>
        <r>  0.0029  0.0001  0.0000  0.0000  0.0000  0.0000  0.0000  0.0000  0.0000 </r>
        <r>  0.0004  0.0002  0.0002  0.0005  0.0000  0.0000  0.0000  0.0000  0.0000 </r>
        <r>  0.0000  0.0001  0.0002  0.0003  0.0000  0.0000  0.0000  0.0000  0.0000 </r>
        <r>  0.0001  0.0000  0.0005  0.0000  0.0000  0.0000  0.0000  0.0000  0.0000 </r>
        <r>  0.0018  0.0007  0.0020  0.0003  0.0000  0.0000  0.0000  0.0000  0.0000 </r>
        <r>  0.0000  0.0008  0.0000  0.0001  0.0000  0.0000  0.0000  0.0000  0.0000 </r>
        <r>  0.0000  0.0002  0.0003  0.0003  0.0000  0.0000  0.0000  0.0000  0.0000 </r>
        <r>  0.0003  0.0003  0.0004  0.0011  0.0000  0.0000  0.0000  0.0000  0.0000 </r>
        <r>  0.0056  0.0036  0.0021  0.0044  0.0000  0.0000  0.0000  0.0000  0.0000 </r>
       </set>
       <set comment="band 28">
        <r>  0.0023  0.0046  0.0023  0.0001  0.0000  0.0000  0.0000  0.0000  0.0000 </r>
        <r>  0.0004  0.0000  0.0001  0.0000  0.0000  0.0000  0.0000  0.0000  0.0000 </r>
        <r>  0.0047  0.0001  0.0087  0.0194  0.0000  0.0000  0.0000  0.0000  0.0000 </r>
        <r>  0.0000  0.0008  0.0022  0.0095  0.0000  0.0000  0.0000  0.0000  0.0000 </r>
        <r>  0.0006  0.0021  0.0012  0.0080  0.0000  0.0000  0.0000  0.0000  0.0000 </r>
        <r>  0.0024  0.0030  0.0001  0.0300  0.0000  0.0000  0.0000  0.0000  0.0000 </r>
        <r>  0.0019  0.0017  0.0004  0.0235  0.0000  0.0000  0.0000  0.0000  0.0000 </r>
        <r>  0.0090  0.0046  0.0067  0.0011  0.0000  0.0000  0.0000  0.0000  0.0000 </r>
        <r>  0.0000  0.0000  0.0000  0.0001  0.0000  0.0000  0.0000  0.0000  0.0000 </r>
        <r>  0.0002  0.0000  0.0002  0.0001  0.0000  0.0000  0.0000  0.0000  0.0000 </r>
        <r>  0.0004  0.0000  0.0013  0.0001  0.0000  0.0000  0.0000  0.0000  0.0000 </r>
        <r>  0.0044  0.0015  0.0052  0.0002  0.0000  0.0000  0.0000  0.0000  0.0000 </r>
        <r>  0.0017  0.0009  0.0001  0.0002  0.0000  0.0000  0.0000  0.0000  0.0000 </r>
        <r>  0.0001  0.0000  0.0012  0.0011  0.0000  0.0000  0.0000  0.0000  0.0000 </r>
        <r>  0.0005  0.0001  0.0013  0.0006  0.0000  0.0000  0.0000  0.0000  0.0000 </r>
        <r>  0.0116  0.0115  0.0019  0.0002  0.0000  0.0000  0.0000  0.0000  0.0000 </r>
       </set>
       <set comment="band 29">
        <r>  0.0166  0.0003  0.0020  0.0001  0.0000  0.0000  0.0000  0.0000  0.0000 </r>
        <r>  0.0000  0.0011  0.0000  0.0050  0.0000  0.0000  0.0000  0.0000  0.0000 </r>
        <r>  0.0005  0.0001  0.0023  0.0054  0.0000  0.0000  0.0000  0.0000  0.0000 </r>
        <r>  0.0000  0.0011  0.0005  0.0064  0.0000  0.0000  0.0000  0.0000  0.0000 </r>
        <r>  0.0002  0.0006  0.0004  0.0000  0.0000  0.0000  0.0000  0.0000  0.0000 </r>
        <r>  0.0042  0.0005  0.0048  0.0020  0.0000  0.0000  0.0000  0.0000  0.0000 </r>
        <r>  0.0003  0.0008  0.0009  0.0059  0.0000  0.0000  0.0000  0.0000  0.0000 </r>
        <r>  0.0007  0.0006  0.0066  0.0001  0.0000  0.0000  0.0000  0.0000  0.0000 </r>
        <r>  0.0000  0.0000  0.0003  0.0018  0.0000  0.0000  0.0000  0.0000  0.0000 </r>
        <r>  0.0000  0.0012  0.0006  0.0008  0.0000  0.0000  0.0000  0.0000  0.0000 </r>
        <r>  0.0000  0.0001  0.0004  0.0000  0.0000  0.0000  0.0000  0.0000  0.0000 </r>
        <r>  0.0002  0.0003  0.0006  0.0000  0.0000  0.0000  0.0000  0.0000  0.0000 </r>
        <r>  0.0000  0.0001  0.0001  0.0000  0.0000  0.0000  0.0000  0.0000  0.0000 </r>
        <r>  0.0005  0.0002  0.0027  0.0000  0.0000  0.0000  0.0000  0.0000  0.0000 </r>
        <r>  0.0001  0.0000  0.0008  0.0002  0.0000  0.0000  0.0000  0.0000  0.0000 </r>
        <r>  0.0004  0.0002  0.0040  0.0013  0.0000  0.0000  0.0000  0.0000  0.0000 </r>
       </set>
       <set comment="band 30">
        <r>  0.0007  0.0011  0.0007  0.0014  0.0000  0.0000  0.0000  0.0000  0.0000 </r>
        <r>  0.0006  0.0016  0.0008  0.0009  0.0000  0.0000  0.0000  0.0000  0.0000 </r>
        <r>  0.0001  0.0014  0.0006  0.0000  0.0000  0.0000  0.0000  0.0000  0.0000 </r>
        <r>  0.0005  0.0000  0.0000  0.0006  0.0000  0.0000  0.0000  0.0000  0.0000 </r>
        <r>  0.0047  0.0128  0.0001  0.0002  0.0000  0.0000  0.0000  0.0000  0.0000 </r>
        <r>  0.0000  0.0000  0.0001  0.0003  0.0000  0.0000  0.0000  0.0000  0.0000 </r>
        <r>  0.0040  0.0037  0.0070  0.0004  0.0000  0.0000  0.0000  0.0000  0.0000 </r>
        <r>  0.0002  0.0003  0.0000  0.0000  0.0000  0.0000  0.0000  0.0000  0.0000 </r>
        <r>  0.0000  0.0002  0.0001  0.0001  0.0000  0.0000  0.0000  0.0000  0.0000 </r>
        <r>  0.0005  0.0001  0.0000  0.0001  0.0000  0.0000  0.0000  0.0000  0.0000 </r>
        <r>  0.0000  0.0000  0.0007  0.0000  0.0000  0.0000  0.0000  0.0000  0.0000 </r>
        <r>  0.0003  0.0001  0.0000  0.0000  0.0000  0.0000  0.0000  0.0000  0.0000 </r>
        <r>  0.0000  0.0032  0.0001  0.0001  0.0000  0.0000  0.0000  0.0000  0.0000 </r>
        <r>  0.0000  0.0001  0.0000  0.0000  0.0000  0.0000  0.0000  0.0000  0.0000 </r>
        <r>  0.0001  0.0006  0.0018  0.0003  0.0000  0.0000  0.0000  0.0000  0.0000 </r>
        <r>  0.0015  0.0022  0.0007  0.0003  0.0000  0.0000  0.0000  0.0000  0.0000 </r>
       </set>
       <set comment="band 31">
        <r>  0.0004  0.0034  0.0090  0.0026  0.0000  0.0000  0.0000  0.0000  0.0000 </r>
        <r>  0.0001  0.0010  0.0001  0.0092  0.0000  0.0000  0.0000  0.0000  0.0000 </r>
        <r>  0.0111  0.0041  0.0612  0.0001  0.0000  0.0000  0.0000  0.0000  0.0000 </r>
        <r>  0.0001  0.0021  0.0026  0.0008  0.0000  0.0000  0.0000  0.0000  0.0000 </r>
        <r>  0.0000  0.0007  0.0013  0.0133  0.0000  0.0000  0.0000  0.0000  0.0000 </r>
        <r>  0.0017  0.0003  0.0018  0.0195  0.0000  0.0000  0.0000  0.0000  0.0000 </r>
        <r>  0.0003  0.0004  0.0085  0.0200  0.0000  0.0000  0.0000  0.0000  0.0000 </r>
        <r>  0.0059  0.0020  0.0371  0.0127  0.0000  0.0000  0.0000  0.0000  0.0000 </r>
        <r>  0.0001  0.0001  0.0000  0.0008  0.0000  0.0000  0.0000  0.0000  0.0000 </r>
        <r>  0.0000  0.0000  0.0001  0.0006  0.0000  0.0000  0.0000  0.0000  0.0000 </r>
        <r>  0.0000  0.0010  0.0007  0.0000  0.0000  0.0000  0.0000  0.0000  0.0000 </r>
        <r>  0.0001  0.0000  0.0000  0.0000  0.0000  0.0000  0.0000  0.0000  0.0000 </r>
        <r>  0.0017  0.0000  0.0000  0.0007  0.0000  0.0000  0.0000  0.0000  0.0000 </r>
        <r>  0.0000  0.0001  0.0002  0.0009  0.0000  0.0000  0.0000  0.0000  0.0000 </r>
        <r>  0.0000  0.0005  0.0000  0.0012  0.0000  0.0000  0.0000  0.0000  0.0000 </r>
        <r>  0.0009  0.0033  0.0036  0.0022  0.0000  0.0000  0.0000  0.0000  0.0000 </r>
       </set>
       <set comment="band 32">
        <r>  0.0007  0.0001  0.0006  0.0027  0.0000  0.0000  0.0000  0.0000  0.0000 </r>
        <r>  0.0021  0.0039  0.0007  0.0070  0.0000  0.0000  0.0000  0.0000  0.0000 </r>
        <r>  0.0014  0.0011  0.0025  0.0120  0.0000  0.0000  0.0000  0.0000  0.0000 </r>
        <r>  0.0071  0.0000  0.0011  0.0105  0.0000  0.0000  0.0000  0.0000  0.0000 </r>
        <r>  0.0023  0.0046  0.0005  0.0008  0.0000  0.0000  0.0000  0.0000  0.0000 </r>
        <r>  0.0009  0.0000  0.0001  0.0002  0.0000  0.0000  0.0000  0.0000  0.0000 </r>
        <r>  0.0032  0.0009  0.0005  0.0020  0.0000  0.0000  0.0000  0.0000  0.0000 </r>
        <r>  0.0003  0.0001  0.0019  0.0004  0.0000  0.0000  0.0000  0.0000  0.0000 </r>
        <r>  0.0001  0.0002  0.0000  0.0002  0.0000  0.0000  0.0000  0.0000  0.0000 </r>
        <r>  0.0010  0.0001  0.0001  0.0000  0.0000  0.0000  0.0000  0.0000  0.0000 </r>
        <r>  0.0002  0.0002  0.0002  0.0000  0.0000  0.0000  0.0000  0.0000  0.0000 </r>
        <r>  0.0001  0.0001  0.0004  0.0000  0.0000  0.0000  0.0000  0.0000  0.0000 </r>
        <r>  0.0001  0.0010  0.0000  0.0001  0.0000  0.0000  0.0000  0.0000  0.0000 </r>
        <r>  0.0000  0.0000  0.0000  0.0000  0.0000  0.0000  0.0000  0.0000  0.0000 </r>
        <r>  0.0003  0.0000  0.0000  0.0002  0.0000  0.0000  0.0000  0.0000  0.0000 </r>
        <r>  0.0013  0.0016  0.0014  0.0006  0.0000  0.0000  0.0000  0.0000  0.0000 </r>
       </set>
       <set comment="band 33">
        <r>  0.0001  0.0042  0.0128  0.0002  0.0000  0.0000  0.0000  0.0000  0.0000 </r>
        <r>  0.0000  0.0024  0.0000  0.0060  0.0000  0.0000  0.0000  0.0000  0.0000 </r>
        <r>  0.0054  0.0016  0.0135  0.0012  0.0000  0.0000  0.0000  0.0000  0.0000 </r>
        <r>  0.0001  0.0002  0.0019  0.0003  0.0000  0.0000  0.0000  0.0000  0.0000 </r>
        <r>  0.0012  0.0010  0.0008  0.0002  0.0000  0.0000  0.0000  0.0000  0.0000 </r>
        <r>  0.0035  0.0013  0.0039  0.0072  0.0000  0.0000  0.0000  0.0000  0.0000 </r>
        <r>  0.0041  0.0016  0.0017  0.0077  0.0000  0.0000  0.0000  0.0000  0.0000 </r>
        <r>  0.0024  0.0019  0.0096  0.0020  0.0000  0.0000  0.0000  0.0000  0.0000 </r>
        <r>  0.0004  0.0002  0.0000  0.0004  0.0000  0.0000  0.0000  0.0000  0.0000 </r>
        <r>  0.0003  0.0007  0.0000  0.0000  0.0000  0.0000  0.0000  0.0000  0.0000 </r>
        <r>  0.0000  0.0000  0.0024  0.0000  0.0000  0.0000  0.0000  0.0000  0.0000 </r>
        <r>  0.0019  0.0004  0.0013  0.0000  0.0000  0.0000  0.0000  0.0000  0.0000 </r>
        <r>  0.0000  0.0000  0.0004  0.0001  0.0000  0.0000  0.0000  0.0000  0.0000 </r>
        <r>  0.0004  0.0005  0.0019  0.0007  0.0000  0.0000  0.0000  0.0000  0.0000 </r>
        <r>  0.0001  0.0008  0.0013  0.0003  0.0000  0.0000  0.0000  0.0000  0.0000 </r>
        <r>  0.0086  0.0006  0.0015  0.0007  0.0000  0.0000  0.0000  0.0000  0.0000 </r>
       </set>
       <set comment="band 34">
        <r>  0.0002  0.0016  0.0002  0.0137  0.0000  0.0000  0.0000  0.0000  0.0000 </r>
        <r>  0.0001  0.0000  0.0000  0.0008  0.0000  0.0000  0.0000  0.0000  0.0000 </r>
        <r>  0.0000  0.0000  0.0014  0.0001  0.0000  0.0000  0.0000  0.0000  0.0000 </r>
        <r>  0.0001  0.0003  0.0003  0.0011  0.0000  0.0000  0.0000  0.0000  0.0000 </r>
        <r>  0.0020  0.0040  0.0000  0.0004  0.0000  0.0000  0.0000  0.0000  0.0000 </r>
        <r>  0.0001  0.0003  0.0043  0.0034  0.0000  0.0000  0.0000  0.0000  0.0000 </r>
        <r>  0.0011  0.0005  0.0058  0.0020  0.0000  0.0000  0.0000  0.0000  0.0000 </r>
        <r>  0.0002  0.0001  0.0000  0.0026  0.0000  0.0000  0.0000  0.0000  0.0000 </r>
        <r>  0.0000  0.0000  0.0003  0.0015  0.0000  0.0000  0.0000  0.0000  0.0000 </r>
        <r>  0.0005  0.0005  0.0006  0.0001  0.0000  0.0000  0.0000  0.0000  0.0000 </r>
        <r>  0.0006  0.0002  0.0001  0.0000  0.0000  0.0000  0.0000  0.0000  0.0000 </r>
        <r>  0.0002  0.0000  0.0000  0.0000  0.0000  0.0000  0.0000  0.0000  0.0000 </r>
        <r>  0.0001  0.0014  0.0001  0.0005  0.0000  0.0000  0.0000  0.0000  0.0000 </r>
        <r>  0.0006  0.0000  0.0004  0.0000  0.0000  0.0000  0.0000  0.0000  0.0000 </r>
        <r>  0.0008  0.0005  0.0013  0.0001  0.0000  0.0000  0.0000  0.0000  0.0000 </r>
        <r>  0.0005  0.0003  0.0001  0.0002  0.0000  0.0000  0.0000  0.0000  0.0000 </r>
       </set>
       <set comment="band 35">
        <r>  0.0027  0.0032  0.0002  0.0009  0.0000  0.0000  0.0000  0.0000  0.0000 </r>
        <r>  0.0045  0.0096  0.0000  0.0019  0.0000  0.0000  0.0000  0.0000  0.0000 </r>
        <r>  0.0005  0.0000  0.0060  0.0044  0.0000  0.0000  0.0000  0.0000  0.0000 </r>
        <r>  0.0000  0.0037  0.0003  0.0066  0.0000  0.0000  0.0000  0.0000  0.0000 </r>
        <r>  0.0002  0.0005  0.0000  0.0000  0.0000  0.0000  0.0000  0.0000  0.0000 </r>
        <r>  0.0002  0.0008  0.0003  0.0047  0.0000  0.0000  0.0000  0.0000  0.0000 </r>
        <r>  0.0003  0.0003  0.0000  0.0015  0.0000  0.0000  0.0000  0.0000  0.0000 </r>
        <r>  0.0017  0.0002  0.0019  0.0006  0.0000  0.0000  0.0000  0.0000  0.0000 </r>
        <r>  0.0010  0.0005  0.0002  0.0004  0.0000  0.0000  0.0000  0.0000  0.0000 </r>
        <r>  0.0002  0.0001  0.0000  0.0004  0.0000  0.0000  0.0000  0.0000  0.0000 </r>
        <r>  0.0000  0.0003  0.0001  0.0002  0.0000  0.0000  0.0000  0.0000  0.0000 </r>
        <r>  0.0001  0.0001  0.0001  0.0001  0.0000  0.0000  0.0000  0.0000  0.0000 </r>
        <r>  0.0002  0.0000  0.0000  0.0003  0.0000  0.0000  0.0000  0.0000  0.0000 </r>
        <r>  0.0000  0.0000  0.0005  0.0001  0.0000  0.0000  0.0000  0.0000  0.0000 </r>
        <r>  0.0016  0.0001  0.0000  0.0003  0.0000  0.0000  0.0000  0.0000  0.0000 </r>
        <r>  0.0004  0.0000  0.0003  0.0002  0.0000  0.0000  0.0000  0.0000  0.0000 </r>
       </set>
       <set comment="band 36">
        <r>  0.0003  0.0009  0.0012  0.0023  0.0000  0.0000  0.0000  0.0000  0.0000 </r>
        <r>  0.0001  0.0000  0.0009  0.0070  0.0000  0.0000  0.0000  0.0000  0.0000 </r>
        <r>  0.0037  0.0040  0.0123  0.0064  0.0000  0.0000  0.0000  0.0000  0.0000 </r>
        <r>  0.0018  0.0001  0.0005  0.0014  0.0000  0.0000  0.0000  0.0000  0.0000 </r>
        <r>  0.0044  0.0010  0.0013  0.0024  0.0000  0.0000  0.0000  0.0000  0.0000 </r>
        <r>  0.0000  0.0012  0.0014  0.0049  0.0000  0.0000  0.0000  0.0000  0.0000 </r>
        <r>  0.0038  0.0009  0.0082  0.0005  0.0000  0.0000  0.0000  0.0000  0.0000 </r>
        <r>  0.0000  0.0000  0.0121  0.0000  0.0000  0.0000  0.0000  0.0000  0.0000 </r>
        <r>  0.0005  0.0000  0.0004  0.0005  0.0000  0.0000  0.0000  0.0000  0.0000 </r>
        <r>  0.0002  0.0001  0.0002  0.0000  0.0000  0.0000  0.0000  0.0000  0.0000 </r>
        <r>  0.0000  0.0001  0.0000  0.0008  0.0000  0.0000  0.0000  0.0000  0.0000 </r>
        <r>  0.0060  0.0017  0.0048  0.0000  0.0000  0.0000  0.0000  0.0000  0.0000 </r>
        <r>  0.0001  0.0013  0.0002  0.0002  0.0000  0.0000  0.0000  0.0000  0.0000 </r>
        <r>  0.0001  0.0001  0.0002  0.0000  0.0000  0.0000  0.0000  0.0000  0.0000 </r>
        <r>  0.0012  0.0008  0.0015  0.0009  0.0000  0.0000  0.0000  0.0000  0.0000 </r>
        <r>  0.0025  0.0064  0.0079  0.0000  0.0000  0.0000  0.0000  0.0000  0.0000 </r>
       </set>
      </set>
     </set>
    </set>
   </array>
  </projected>
 </calculation>
 <structure name="finalpos" >
  <crystal>
   <varray name="basis" >
    <v>       7.75610000       0.00000000       0.00000000 </v>
    <v>       0.00000000      11.83610000       0.00000000 </v>
    <v>       0.00000000       0.00000000      11.23020000 </v>
   </varray>
   <i name="volume">   1030.95454200 </i>
   <varray name="rec_basis" >
    <v>       0.12893078       0.00000000       0.00000000 </v>
    <v>       0.00000000       0.08448729       0.00000000 </v>
    <v>       0.00000000       0.00000000       0.08904561 </v>
   </varray>
  </crystal>
  <varray name="positions" >
   <v>       0.60643467       0.71311399       0.52163804 </v>
   <v>       0.52776472       0.58962450       0.52600054 </v>
   <v>       0.50244671       0.51643757       0.43758521 </v>
   <v>       0.44745751       0.40250485       0.45129093 </v>
   <v>       0.45690831       0.35310077       0.56035268 </v>
   <v>       0.50859818       0.42969353       0.64676286 </v>
   <v>       0.52807628       0.54322628       0.63688119 </v>
   <v>       0.57649683       0.53637875       0.32055372 </v>
   <v>       0.73145061       0.70916171       0.47760359 </v>
   <v>       0.53304407       0.76563672       0.46287500 </v>
   <v>       0.62022576       0.73478853       0.61634875 </v>
   <v>       0.40879115       0.39732739       0.28584735 </v>
   <v>       0.44088999       0.25950671       0.56753103 </v>
   <v>       0.52352254       0.40028453       0.73006462 </v>
   <v>       0.50547768       0.59232147       0.71898706 </v>
   <v>       0.38936991       0.34798077       0.35325226 </v>
  </varray>
  <varray name="velocities" >
   <v>      -0.00095039      -0.00014252      -0.00032139 </v>
   <v>       0.00149041      -0.00100840       0.00015615 </v>
   <v>       0.00106036      -0.00040099       0.00020233 </v>
   <v>      -0.00005885       0.00020468       0.00033431 </v>
   <v>      -0.00067054       0.00092648      -0.00018952 </v>
   <v>      -0.00026714       0.00056946      -0.00041637 </v>
   <v>       0.00114402       0.00047540       0.00055821 </v>
   <v>      -0.00018043      -0.00012439      -0.00013567 </v>
   <v>       0.00182964      -0.00243202       0.00345638 </v>
   <v>       0.00137475      -0.00133300      -0.00189382 </v>
   <v>       0.00009102       0.00402579       0.00077220 </v>
   <v>       0.00014491       0.00079730       0.00101065 </v>
   <v>      -0.00152506      -0.00127231      -0.00283320 </v>
   <v>      -0.00673330       0.00019724      -0.00230316 </v>
   <v>       0.00006409      -0.00262824      -0.00251718 </v>
   <v>      -0.00080075      -0.00015549       0.00018734 </v>
  </varray>
 </structure>
</modeling>
