  15  15   1   0
  0.6786772E+02  0.7745500E-09  0.1175610E-08  0.1118000E-08  0.2000000E-15
  1.000000000000000E-004
  CAR 
 QM9                                     
      3.43714582    -31.77469796  301     -4.65424245      1.00000000
    -31.775  0.0000E+00  0.0000E+00
    -31.657  0.0000E+00  0.0000E+00
    -31.540  0.0000E+00  0.0000E+00
    -31.423  0.0000E+00  0.0000E+00
    -31.305  0.0000E+00  0.0000E+00
    -31.188  0.0000E+00  0.0000E+00
    -31.070  0.0000E+00  0.0000E+00
    -30.953  0.0000E+00  0.0000E+00
    -30.836  0.0000E+00  0.0000E+00
    -30.718  0.1201E-13  0.1410E-14
    -30.601  0.1346E-08  0.1580E-09
    -30.484  0.1029E-04  0.1208E-05
    -30.366  0.5616E-02  0.6604E-03
    -30.249  0.2422E+00  0.2908E-01
    -30.131  0.9909E+00  0.1454E+00
    -30.014  0.4452E+00  0.1976E+00
    -29.897  0.2004E-01  0.2000E+00
    -29.779  0.7436E-04  0.2000E+00
    -29.662  0.2011E-07  0.2000E+00
    -29.545  0.3734E-12  0.2000E+00
    -29.427  0.0000E+00  0.2000E+00
    -29.310  0.0000E+00  0.2000E+00
    -29.192  0.0000E+00  0.2000E+00
    -29.075  0.0000E+00  0.2000E+00
    -28.958  0.0000E+00  0.2000E+00
    -28.840  0.0000E+00  0.2000E+00
    -28.723  0.0000E+00  0.2000E+00
    -28.606  0.0000E+00  0.2000E+00
    -28.488  0.0000E+00  0.2000E+00
    -28.371  0.0000E+00  0.2000E+00
    -28.254  0.0000E+00  0.2000E+00
    -28.136  0.0000E+00  0.2000E+00
    -28.019  0.0000E+00  0.2000E+00
    -27.901  0.0000E+00  0.2000E+00
    -27.784  0.0000E+00  0.2000E+00
    -27.667  0.0000E+00  0.2000E+00
    -27.549  0.0000E+00  0.2000E+00
    -27.432  0.0000E+00  0.2000E+00
    -27.315  0.0000E+00  0.2000E+00
    -27.197  0.0000E+00  0.2000E+00
    -27.080  0.0000E+00  0.2000E+00
    -26.962  0.0000E+00  0.2000E+00
    -26.845  0.0000E+00  0.2000E+00
    -26.728  0.0000E+00  0.2000E+00
    -26.610  0.0000E+00  0.2000E+00
    -26.493  0.0000E+00  0.2000E+00
    -26.376  0.0000E+00  0.2000E+00
    -26.258  0.0000E+00  0.2000E+00
    -26.141  0.0000E+00  0.2000E+00
    -26.023  0.0000E+00  0.2000E+00
    -25.906  0.0000E+00  0.2000E+00
    -25.789  0.0000E+00  0.2000E+00
    -25.671  0.0000E+00  0.2000E+00
    -25.554  0.0000E+00  0.2000E+00
    -25.437  0.0000E+00  0.2000E+00
    -25.319  0.0000E+00  0.2000E+00
    -25.202  0.0000E+00  0.2000E+00
    -25.084  0.0000E+00  0.2000E+00
    -24.967  0.0000E+00  0.2000E+00
    -24.850  0.0000E+00  0.2000E+00
    -24.732  0.2270E-14  0.2000E+00
    -24.615  0.3609E-09  0.2000E+00
    -24.498  0.3864E-05  0.2000E+00
    -24.380  0.2928E-02  0.2003E+00
    -24.263  0.1724E+00  0.2206E+00
    -24.145  0.9381E+00  0.3307E+00
    -24.028  0.5566E+00  0.3960E+00
    -23.911  0.3385E-01  0.4000E+00
    -23.793  0.1735E-03  0.4000E+00
    -23.676  0.6553E-07  0.4000E+00
    -23.559  0.1708E-11  0.4000E+00
    -23.441  0.0000E+00  0.4000E+00
    -23.324  0.1797E-14  0.4000E+00
    -23.206  0.3012E-09  0.4000E+00
    -23.089  0.3375E-05  0.4000E+00
    -22.972  0.2674E-02  0.4003E+00
    -22.854  0.1642E+00  0.4196E+00
    -22.737  0.9287E+00  0.5286E+00
    -22.620  0.5720E+00  0.5957E+00
    -22.502  0.3622E-01  0.6000E+00
    -22.385  0.1939E-03  0.6000E+00
    -22.268  0.7659E-07  0.6000E+00
    -22.150  0.2090E-11  0.6000E+00
    -22.033  0.0000E+00  0.6000E+00
    -21.915  0.0000E+00  0.6000E+00
    -21.798  0.0000E+00  0.6000E+00
    -21.681  0.0000E+00  0.6000E+00
    -21.563  0.6579E-12  0.6000E+00
    -21.446  0.3125E-07  0.6000E+00
    -21.329  0.1022E-03  0.6000E+00
    -21.211  0.2443E-01  0.6029E+00
    -21.094  0.4855E+00  0.6599E+00
    -20.976  0.9750E+00  0.7743E+00
    -20.859  0.2145E+00  0.7995E+00
    -20.742  0.4437E-02  0.8000E+00
    -20.624  0.7204E-05  0.8000E+00
    -20.507  0.8320E-09  0.8000E+00
    -20.390  0.6432E-14  0.8000E+00
    -20.272  0.0000E+00  0.8000E+00
    -20.155  0.0000E+00  0.8000E+00
    -20.037  0.0000E+00  0.8000E+00
    -19.920  0.0000E+00  0.8000E+00
    -19.803  0.0000E+00  0.8000E+00
    -19.685  0.0000E+00  0.8000E+00
    -19.568  0.0000E+00  0.8000E+00
    -19.451  0.6035E-13  0.8000E+00
    -19.333  0.4827E-08  0.8000E+00
    -19.216  0.2635E-04  0.8000E+00
    -19.098  0.1036E-01  0.8012E+00
    -18.981  0.3280E+00  0.8397E+00
    -18.864  0.1011E+01  0.9584E+00
    -18.746  0.3431E+00  0.9987E+00
    -18.629  0.1138E-01  0.1000E+01
    -18.512  0.3049E-04  0.1000E+01
    -18.394  0.5892E-08  0.1000E+01
    -18.277  0.7794E-13  0.1000E+01
    -18.159  0.0000E+00  0.1000E+01
    -18.042  0.0000E+00  0.1000E+01
    -17.925  0.3878E-14  0.1000E+01
    -17.807  0.5490E-09  0.1000E+01
    -17.690  0.5287E-05  0.1000E+01
    -17.573  0.3611E-02  0.1000E+01
    -17.455  0.1926E+00  0.1023E+01
    -17.338  0.9580E+00  0.1135E+01
    -17.220  0.5207E+00  0.1197E+01
    -17.103  0.2881E-01  0.1200E+01
    -16.986  0.1334E-03  0.1200E+01
    -16.868  0.4535E-07  0.1200E+01
    -16.751  0.1062E-11  0.1200E+01
    -16.634  0.0000E+00  0.1200E+01
    -16.516  0.0000E+00  0.1200E+01
    -16.399  0.0000E+00  0.1200E+01
    -16.281  0.0000E+00  0.1200E+01
    -16.164  0.9459E-16  0.1200E+01
    -16.047  0.2606E-10  0.1200E+01
    -15.929  0.5311E-06  0.1200E+01
    -15.812  0.7557E-03  0.1200E+01
    -15.695  0.8113E-01  0.1210E+01
    -15.577  0.7673E+00  0.1300E+01
    -15.460  0.7715E+00  0.1390E+01
    -15.343  0.8251E-01  0.1400E+01
    -15.225  0.8385E-03  0.1400E+01
    -15.108  0.1754E-01  0.1402E+01
    -14.990  0.4194E+00  0.1451E+01
    -14.873  0.9989E+00  0.1569E+01
    -14.756  0.2615E+00  0.1599E+01
    -14.638  0.6536E-02  0.1600E+01
    -14.521  0.1297E-04  0.1600E+01
    -14.404  0.1840E-08  0.1600E+01
    -14.286  0.1778E-13  0.1600E+01
    -14.169  0.0000E+00  0.1600E+01
    -14.051  0.7851E-14  0.1600E+01
    -13.934  0.9600E-09  0.1600E+01
    -13.817  0.8012E-05  0.1600E+01
    -13.699  0.4760E-02  0.1601E+01
    -13.582  0.2225E+00  0.1627E+01
    -13.465  0.9802E+00  0.1742E+01
    -13.347  0.4734E+00  0.1797E+01
    -13.230  0.2305E-01  0.1800E+01
    -13.112  0.9306E-04  0.1800E+01
    -12.995  0.5798E-04  0.1800E+01
    -12.878  0.1713E-01  0.1802E+01
    -12.760  0.4149E+00  0.1851E+01
    -12.643  0.1001E+01  0.1968E+01
    -12.526  0.3459E+00  0.2009E+01
    -12.408  0.7732E+00  0.2100E+01
    -12.291  0.7723E+00  0.2190E+01
    -12.173  0.8279E-01  0.2200E+01
    -12.056  0.7828E-03  0.2200E+01
    -11.939  0.5692E-06  0.2200E+01
    -11.821  0.4633E-04  0.2200E+01
    -11.704  0.1486E-01  0.2202E+01
    -11.587  0.3889E+00  0.2247E+01
    -11.469  0.1006E+01  0.2365E+01
    -11.352  0.2863E+00  0.2399E+01
    -11.234  0.1513E-01  0.2401E+01
    -11.117  0.2762E+00  0.2433E+01
    -11.000  0.1004E+01  0.2551E+01
    -10.882  0.4010E+00  0.2598E+01
    -10.765  0.1589E-01  0.2600E+01
    -10.648  0.5182E-03  0.2600E+01
    -10.530  0.6127E-01  0.2607E+01
    -10.413  0.6979E+00  0.2689E+01
    -10.295  0.8356E+00  0.2787E+01
    -10.178  0.1075E+00  0.2800E+01
    -10.061  0.1250E-02  0.2800E+01
     -9.943  0.6133E-02  0.2801E+01
     -9.826  0.2532E+00  0.2830E+01
     -9.709  0.9958E+00  0.2947E+01
     -9.591  0.4330E+00  0.2998E+01
     -9.474  0.1884E+00  0.3020E+01
     -9.356  0.1106E+01  0.3150E+01
     -9.239  0.1507E+01  0.3327E+01
     -9.122  0.5900E+00  0.3396E+01
     -9.004  0.1455E+00  0.3413E+01
     -8.887  0.1116E+01  0.3544E+01
     -8.770  0.1713E+01  0.3745E+01
     -8.652  0.4506E+00  0.3798E+01
     -8.535  0.1521E-01  0.3800E+01
     -8.418  0.4590E-04  0.3800E+01
     -8.300  0.1859E-07  0.3800E+01
     -8.183  0.3930E-04  0.3800E+01
     -8.065  0.1339E-01  0.3802E+01
     -7.948  0.3704E+00  0.3845E+01
     -7.831  0.1009E+01  0.3963E+01
     -7.713  0.3024E+00  0.3999E+01
     -7.596  0.8765E-02  0.4000E+01
     -7.479  0.2034E-04  0.4000E+01
     -7.361  0.3391E-08  0.4000E+01
     -7.244  0.3859E-13  0.4000E+01
     -7.126  0.0000E+00  0.4000E+01
     -7.009  0.1510E-10  0.4000E+01
     -6.892  0.3503E-06  0.4000E+01
     -6.774  0.5658E-03  0.4000E+01
     -6.657  0.6860E-01  0.4008E+01
     -6.540  0.7259E+00  0.4093E+01
     -6.422  0.8335E+00  0.4191E+01
     -6.305  0.5655E+00  0.4258E+01
     -6.187  0.9832E+00  0.4373E+01
     -6.070  0.2258E+00  0.4399E+01
     -5.953  0.4899E-02  0.4400E+01
     -5.835  0.8367E-05  0.4400E+01
     -5.718  0.1018E-08  0.4400E+01
     -5.601  0.1390E-07  0.4400E+01
     -5.483  0.5720E-04  0.4400E+01
     -5.366  0.1743E-01  0.4402E+01
     -5.248  0.4767E+00  0.4458E+01
     -5.131  0.1709E+01  0.4659E+01
     -5.014  0.1093E+01  0.4787E+01
     -4.896  0.1103E+00  0.4800E+01
     -4.779  0.1171E-02  0.4800E+01
     -4.662  0.9874E-06  0.4800E+01
     -4.544  0.5880E-10  0.4800E+01
     -4.427  0.1892E-15  0.4800E+01
     -4.309  0.0000E+00  0.4800E+01
     -4.192  0.0000E+00  0.4800E+01
     -4.075  0.0000E+00  0.4800E+01
     -3.957  0.0000E+00  0.4800E+01
     -3.840  0.0000E+00  0.4800E+01
     -3.723  0.0000E+00  0.4800E+01
     -3.605  0.0000E+00  0.4800E+01
     -3.488  0.0000E+00  0.4800E+01
     -3.370  0.0000E+00  0.4800E+01
     -3.253  0.0000E+00  0.4800E+01
     -3.136  0.0000E+00  0.4800E+01
     -3.018  0.0000E+00  0.4800E+01
     -2.901  0.0000E+00  0.4800E+01
     -2.784  0.0000E+00  0.4800E+01
     -2.666  0.0000E+00  0.4800E+01
     -2.549  0.0000E+00  0.4800E+01
     -2.431  0.0000E+00  0.4800E+01
     -2.314  0.0000E+00  0.4800E+01
     -2.197  0.0000E+00  0.4800E+01
     -2.079  0.0000E+00  0.4800E+01
     -1.962  0.0000E+00  0.4800E+01
     -1.845  0.0000E+00  0.4800E+01
     -1.727  0.0000E+00  0.4800E+01
     -1.610  0.8986E-14  0.4800E+01
     -1.493  0.1069E-08  0.4800E+01
     -1.375  0.8676E-05  0.4800E+01
     -1.258  0.5018E-02  0.4801E+01
     -1.140  0.2286E+00  0.4827E+01
     -1.023  0.9838E+00  0.4943E+01
     -0.906  0.4657E+00  0.4998E+01
     -0.788  0.1330E+00  0.5013E+01
     -0.671  0.8432E+00  0.5112E+01
     -0.554  0.6956E+00  0.5194E+01
     -0.436  0.3204E+00  0.5231E+01
     -0.319  0.9993E+00  0.5349E+01
     -0.201  0.4196E+00  0.5398E+01
     -0.084  0.1756E-01  0.5400E+01
      0.033  0.6028E-04  0.5400E+01
      0.151  0.3968E-06  0.5400E+01
      0.268  0.6008E-03  0.5400E+01
      0.385  0.7103E-01  0.5408E+01
      0.503  0.7356E+00  0.5495E+01
      0.620  0.9059E+00  0.5601E+01
      0.738  0.1034E+01  0.5722E+01
      0.855  0.1574E+01  0.5907E+01
      0.972  0.7602E+00  0.5996E+01
      1.090  0.5435E+00  0.6060E+01
      1.207  0.9741E+00  0.6175E+01
      1.324  0.2127E+00  0.6199E+01
      1.442  0.4365E-02  0.6200E+01
      1.559  0.8139E-04  0.6200E+01
      1.677  0.2004E-01  0.6202E+01
      1.794  0.4452E+00  0.6255E+01
      1.911  0.9909E+00  0.6371E+01
      2.029  0.2422E+00  0.6399E+01
      2.146  0.5616E-02  0.6400E+01
      2.263  0.1029E-04  0.6400E+01
      2.381  0.1346E-08  0.6400E+01
      2.498  0.1211E-13  0.6400E+01
      2.616  0.0000E+00  0.6400E+01
      2.733  0.0000E+00  0.6400E+01
      2.850  0.0000E+00  0.6400E+01
      2.968  0.0000E+00  0.6400E+01
      3.085  0.0000E+00  0.6400E+01
      3.202  0.0000E+00  0.6400E+01
      3.320  0.0000E+00  0.6400E+01
      3.437  0.0000E+00  0.6400E+01
      3.43714582    -31.77469796  301     -4.65424245      1.00000000
    -31.775  0.0000E+00  0.0000E+00  0.0000E+00  0.0000E+00  0.0000E+00  0.0000E+00  0.0000E+00  0.0000E+00  0.0000E+00
    -31.657  0.0000E+00  0.0000E+00  0.0000E+00  0.0000E+00  0.0000E+00  0.0000E+00  0.0000E+00  0.0000E+00  0.0000E+00
    -31.540  0.0000E+00  0.0000E+00  0.0000E+00  0.0000E+00  0.0000E+00  0.0000E+00  0.0000E+00  0.0000E+00  0.0000E+00
    -31.423  0.0000E+00  0.0000E+00  0.0000E+00  0.0000E+00  0.0000E+00  0.0000E+00  0.0000E+00  0.0000E+00  0.0000E+00
    -31.305  0.0000E+00  0.0000E+00  0.0000E+00  0.0000E+00  0.0000E+00  0.0000E+00  0.0000E+00  0.0000E+00  0.0000E+00
    -31.188  0.0000E+00  0.0000E+00  0.0000E+00  0.0000E+00  0.0000E+00  0.0000E+00  0.0000E+00  0.0000E+00  0.0000E+00
    -31.070  0.0000E+00  0.0000E+00  0.0000E+00  0.0000E+00  0.0000E+00  0.0000E+00  0.0000E+00  0.0000E+00  0.0000E+00
    -30.953  0.0000E+00  0.0000E+00  0.0000E+00  0.0000E+00  0.0000E+00  0.0000E+00  0.0000E+00  0.0000E+00  0.0000E+00
    -30.836  0.0000E+00  0.0000E+00  0.0000E+00  0.0000E+00  0.0000E+00  0.0000E+00  0.0000E+00  0.0000E+00  0.0000E+00
    -30.718  0.5411E-17  0.1751E-17  0.1037E-17  0.5796E-20  0.0000E+00  0.0000E+00  0.0000E+00  0.0000E+00  0.0000E+00
    -30.601  0.6062E-12  0.1961E-12  0.1162E-12  0.6494E-15  0.0000E+00  0.0000E+00  0.0000E+00  0.0000E+00  0.0000E+00
    -30.484  0.4636E-08  0.1500E-08  0.8882E-09  0.4966E-11  0.0000E+00  0.0000E+00  0.0000E+00  0.0000E+00  0.0000E+00
    -30.366  0.2530E-05  0.8184E-06  0.4846E-06  0.2710E-08  0.0000E+00  0.0000E+00  0.0000E+00  0.0000E+00  0.0000E+00
    -30.249  0.1091E-03  0.3529E-04  0.2090E-04  0.1168E-06  0.0000E+00  0.0000E+00  0.0000E+00  0.0000E+00  0.0000E+00
    -30.131  0.4463E-03  0.1444E-03  0.8552E-04  0.4781E-06  0.0000E+00  0.0000E+00  0.0000E+00  0.0000E+00  0.0000E+00
    -30.014  0.2005E-03  0.6488E-04  0.3842E-04  0.2148E-06  0.0000E+00  0.0000E+00  0.0000E+00  0.0000E+00  0.0000E+00
    -29.897  0.9025E-05  0.2920E-05  0.1729E-05  0.9668E-08  0.0000E+00  0.0000E+00  0.0000E+00  0.0000E+00  0.0000E+00
    -29.779  0.3350E-07  0.1084E-07  0.6418E-08  0.3588E-10  0.0000E+00  0.0000E+00  0.0000E+00  0.0000E+00  0.0000E+00
    -29.662  0.9056E-11  0.2930E-11  0.1735E-11  0.9701E-14  0.0000E+00  0.0000E+00  0.0000E+00  0.0000E+00  0.0000E+00
    -29.545  0.1682E-15  0.5442E-16  0.3223E-16  0.1802E-18  0.0000E+00  0.0000E+00  0.0000E+00  0.0000E+00  0.0000E+00
    -29.427  0.0000E+00  0.0000E+00  0.0000E+00  0.0000E+00  0.0000E+00  0.0000E+00  0.0000E+00  0.0000E+00  0.0000E+00
    -29.310  0.0000E+00  0.0000E+00  0.0000E+00  0.0000E+00  0.0000E+00  0.0000E+00  0.0000E+00  0.0000E+00  0.0000E+00
    -29.192  0.0000E+00  0.0000E+00  0.0000E+00  0.0000E+00  0.0000E+00  0.0000E+00  0.0000E+00  0.0000E+00  0.0000E+00
    -29.075  0.0000E+00  0.0000E+00  0.0000E+00  0.0000E+00  0.0000E+00  0.0000E+00  0.0000E+00  0.0000E+00  0.0000E+00
    -28.958  0.0000E+00  0.0000E+00  0.0000E+00  0.0000E+00  0.0000E+00  0.0000E+00  0.0000E+00  0.0000E+00  0.0000E+00
    -28.840  0.0000E+00  0.0000E+00  0.0000E+00  0.0000E+00  0.0000E+00  0.0000E+00  0.0000E+00  0.0000E+00  0.0000E+00
    -28.723  0.0000E+00  0.0000E+00  0.0000E+00  0.0000E+00  0.0000E+00  0.0000E+00  0.0000E+00  0.0000E+00  0.0000E+00
    -28.606  0.0000E+00  0.0000E+00  0.0000E+00  0.0000E+00  0.0000E+00  0.0000E+00  0.0000E+00  0.0000E+00  0.0000E+00
    -28.488  0.0000E+00  0.0000E+00  0.0000E+00  0.0000E+00  0.0000E+00  0.0000E+00  0.0000E+00  0.0000E+00  0.0000E+00
    -28.371  0.0000E+00  0.0000E+00  0.0000E+00  0.0000E+00  0.0000E+00  0.0000E+00  0.0000E+00  0.0000E+00  0.0000E+00
    -28.254  0.0000E+00  0.0000E+00  0.0000E+00  0.0000E+00  0.0000E+00  0.0000E+00  0.0000E+00  0.0000E+00  0.0000E+00
    -28.136  0.0000E+00  0.0000E+00  0.0000E+00  0.0000E+00  0.0000E+00  0.0000E+00  0.0000E+00  0.0000E+00  0.0000E+00
    -28.019  0.0000E+00  0.0000E+00  0.0000E+00  0.0000E+00  0.0000E+00  0.0000E+00  0.0000E+00  0.0000E+00  0.0000E+00
    -27.901  0.0000E+00  0.0000E+00  0.0000E+00  0.0000E+00  0.0000E+00  0.0000E+00  0.0000E+00  0.0000E+00  0.0000E+00
    -27.784  0.0000E+00  0.0000E+00  0.0000E+00  0.0000E+00  0.0000E+00  0.0000E+00  0.0000E+00  0.0000E+00  0.0000E+00
    -27.667  0.0000E+00  0.0000E+00  0.0000E+00  0.0000E+00  0.0000E+00  0.0000E+00  0.0000E+00  0.0000E+00  0.0000E+00
    -27.549  0.0000E+00  0.0000E+00  0.0000E+00  0.0000E+00  0.0000E+00  0.0000E+00  0.0000E+00  0.0000E+00  0.0000E+00
    -27.432  0.0000E+00  0.0000E+00  0.0000E+00  0.0000E+00  0.0000E+00  0.0000E+00  0.0000E+00  0.0000E+00  0.0000E+00
    -27.315  0.0000E+00  0.0000E+00  0.0000E+00  0.0000E+00  0.0000E+00  0.0000E+00  0.0000E+00  0.0000E+00  0.0000E+00
    -27.197  0.0000E+00  0.0000E+00  0.0000E+00  0.0000E+00  0.0000E+00  0.0000E+00  0.0000E+00  0.0000E+00  0.0000E+00
    -27.080  0.0000E+00  0.0000E+00  0.0000E+00  0.0000E+00  0.0000E+00  0.0000E+00  0.0000E+00  0.0000E+00  0.0000E+00
    -26.962  0.0000E+00  0.0000E+00  0.0000E+00  0.0000E+00  0.0000E+00  0.0000E+00  0.0000E+00  0.0000E+00  0.0000E+00
    -26.845  0.0000E+00  0.0000E+00  0.0000E+00  0.0000E+00  0.0000E+00  0.0000E+00  0.0000E+00  0.0000E+00  0.0000E+00
    -26.728  0.0000E+00  0.0000E+00  0.0000E+00  0.0000E+00  0.0000E+00  0.0000E+00  0.0000E+00  0.0000E+00  0.0000E+00
    -26.610  0.0000E+00  0.0000E+00  0.0000E+00  0.0000E+00  0.0000E+00  0.0000E+00  0.0000E+00  0.0000E+00  0.0000E+00
    -26.493  0.0000E+00  0.0000E+00  0.0000E+00  0.0000E+00  0.0000E+00  0.0000E+00  0.0000E+00  0.0000E+00  0.0000E+00
    -26.376  0.0000E+00  0.0000E+00  0.0000E+00  0.0000E+00  0.0000E+00  0.0000E+00  0.0000E+00  0.0000E+00  0.0000E+00
    -26.258  0.0000E+00  0.0000E+00  0.0000E+00  0.0000E+00  0.0000E+00  0.0000E+00  0.0000E+00  0.0000E+00  0.0000E+00
    -26.141  0.0000E+00  0.0000E+00  0.0000E+00  0.0000E+00  0.0000E+00  0.0000E+00  0.0000E+00  0.0000E+00  0.0000E+00
    -26.023  0.0000E+00  0.0000E+00  0.0000E+00  0.0000E+00  0.0000E+00  0.0000E+00  0.0000E+00  0.0000E+00  0.0000E+00
    -25.906  0.0000E+00  0.0000E+00  0.0000E+00  0.0000E+00  0.0000E+00  0.0000E+00  0.0000E+00  0.0000E+00  0.0000E+00
    -25.789  0.0000E+00  0.0000E+00  0.0000E+00  0.0000E+00  0.0000E+00  0.0000E+00  0.0000E+00  0.0000E+00  0.0000E+00
    -25.671  0.0000E+00  0.0000E+00  0.0000E+00  0.0000E+00  0.0000E+00  0.0000E+00  0.0000E+00  0.0000E+00  0.0000E+00
    -25.554  0.0000E+00  0.0000E+00  0.0000E+00  0.0000E+00  0.0000E+00  0.0000E+00  0.0000E+00  0.0000E+00  0.0000E+00
    -25.437  0.0000E+00  0.0000E+00  0.0000E+00  0.0000E+00  0.0000E+00  0.0000E+00  0.0000E+00  0.0000E+00  0.0000E+00
    -25.319  0.0000E+00  0.0000E+00  0.0000E+00  0.0000E+00  0.0000E+00  0.0000E+00  0.0000E+00  0.0000E+00  0.0000E+00
    -25.202  0.0000E+00  0.0000E+00  0.0000E+00  0.0000E+00  0.0000E+00  0.0000E+00  0.0000E+00  0.0000E+00  0.0000E+00
    -25.084  0.0000E+00  0.0000E+00  0.0000E+00  0.0000E+00  0.0000E+00  0.0000E+00  0.0000E+00  0.0000E+00  0.0000E+00
    -24.967  0.0000E+00  0.0000E+00  0.0000E+00  0.0000E+00  0.0000E+00  0.0000E+00  0.0000E+00  0.0000E+00  0.0000E+00
    -24.850  0.0000E+00  0.0000E+00  0.0000E+00  0.0000E+00  0.0000E+00  0.0000E+00  0.0000E+00  0.0000E+00  0.0000E+00
    -24.732  0.2275E-16  0.6895E-17  0.1539E-18  0.1110E-19  0.0000E+00  0.0000E+00  0.0000E+00  0.0000E+00  0.0000E+00
    -24.615  0.3616E-11  0.1096E-11  0.2447E-13  0.1765E-14  0.0000E+00  0.0000E+00  0.0000E+00  0.0000E+00  0.0000E+00
    -24.498  0.3872E-07  0.1174E-07  0.2620E-09  0.1890E-10  0.0000E+00  0.0000E+00  0.0000E+00  0.0000E+00  0.0000E+00
    -24.380  0.2934E-04  0.8893E-05  0.1986E-06  0.1432E-07  0.0000E+00  0.0000E+00  0.0000E+00  0.0000E+00  0.0000E+00
    -24.263  0.1727E-02  0.5234E-03  0.1169E-04  0.8428E-06  0.0000E+00  0.0000E+00  0.0000E+00  0.0000E+00  0.0000E+00
    -24.145  0.9401E-02  0.2849E-02  0.6361E-04  0.4587E-05  0.0000E+00  0.0000E+00  0.0000E+00  0.0000E+00  0.0000E+00
    -24.028  0.5577E-02  0.1690E-02  0.3774E-04  0.2722E-05  0.0000E+00  0.0000E+00  0.0000E+00  0.0000E+00  0.0000E+00
    -23.911  0.3392E-03  0.1028E-03  0.2295E-05  0.1655E-06  0.0000E+00  0.0000E+00  0.0000E+00  0.0000E+00  0.0000E+00
    -23.793  0.1739E-05  0.5270E-06  0.1177E-07  0.8486E-09  0.0000E+00  0.0000E+00  0.0000E+00  0.0000E+00  0.0000E+00
    -23.676  0.6566E-09  0.1990E-09  0.4443E-11  0.3204E-12  0.0000E+00  0.0000E+00  0.0000E+00  0.0000E+00  0.0000E+00
    -23.559  0.1712E-13  0.5188E-14  0.1158E-15  0.8354E-17  0.0000E+00  0.0000E+00  0.0000E+00  0.0000E+00  0.0000E+00
    -23.441  0.0000E+00  0.0000E+00  0.0000E+00  0.0000E+00  0.0000E+00  0.0000E+00  0.0000E+00  0.0000E+00  0.0000E+00
    -23.324  0.6186E-16  0.1444E-16  0.4046E-18  0.2556E-19  0.0000E+00  0.0000E+00  0.0000E+00  0.0000E+00  0.0000E+00
    -23.206  0.1037E-10  0.2420E-11  0.6782E-13  0.4284E-14  0.0000E+00  0.0000E+00  0.0000E+00  0.0000E+00  0.0000E+00
    -23.089  0.1162E-06  0.2711E-07  0.7599E-09  0.4801E-10  0.0000E+00  0.0000E+00  0.0000E+00  0.0000E+00  0.0000E+00
    -22.972  0.9204E-04  0.2148E-04  0.6020E-06  0.3803E-07  0.0000E+00  0.0000E+00  0.0000E+00  0.0000E+00  0.0000E+00
    -22.854  0.5651E-02  0.1319E-02  0.3696E-04  0.2335E-05  0.0000E+00  0.0000E+00  0.0000E+00  0.0000E+00  0.0000E+00
    -22.737  0.3197E-01  0.7460E-02  0.2091E-03  0.1321E-04  0.0000E+00  0.0000E+00  0.0000E+00  0.0000E+00  0.0000E+00
    -22.620  0.1969E-01  0.4595E-02  0.1288E-03  0.8136E-05  0.0000E+00  0.0000E+00  0.0000E+00  0.0000E+00  0.0000E+00
    -22.502  0.1247E-02  0.2909E-03  0.8154E-05  0.5152E-06  0.0000E+00  0.0000E+00  0.0000E+00  0.0000E+00  0.0000E+00
    -22.385  0.6674E-05  0.1558E-05  0.4365E-07  0.2758E-08  0.0000E+00  0.0000E+00  0.0000E+00  0.0000E+00  0.0000E+00
    -22.268  0.2636E-08  0.6152E-09  0.1724E-10  0.1089E-11  0.0000E+00  0.0000E+00  0.0000E+00  0.0000E+00  0.0000E+00
    -22.150  0.7194E-13  0.1679E-13  0.4705E-15  0.2973E-16  0.0000E+00  0.0000E+00  0.0000E+00  0.0000E+00  0.0000E+00
    -22.033  0.0000E+00  0.0000E+00  0.0000E+00  0.0000E+00  0.0000E+00  0.0000E+00  0.0000E+00  0.0000E+00  0.0000E+00
    -21.915  0.0000E+00  0.0000E+00  0.0000E+00  0.0000E+00  0.0000E+00  0.0000E+00  0.0000E+00  0.0000E+00  0.0000E+00
    -21.798  0.0000E+00  0.0000E+00  0.0000E+00  0.0000E+00  0.0000E+00  0.0000E+00  0.0000E+00  0.0000E+00  0.0000E+00
    -21.681  0.0000E+00  0.0000E+00  0.0000E+00  0.0000E+00  0.0000E+00  0.0000E+00  0.0000E+00  0.0000E+00  0.0000E+00
    -21.563  0.8422E-13  0.1318E-13  0.3104E-15  0.2200E-16  0.0000E+00  0.0000E+00  0.0000E+00  0.0000E+00  0.0000E+00
    -21.446  0.4001E-08  0.6262E-09  0.1475E-10  0.1045E-11  0.0000E+00  0.0000E+00  0.0000E+00  0.0000E+00  0.0000E+00
    -21.329  0.1308E-04  0.2047E-05  0.4821E-07  0.3417E-08  0.0000E+00  0.0000E+00  0.0000E+00  0.0000E+00  0.0000E+00
    -21.211  0.3127E-02  0.4895E-03  0.1153E-04  0.8171E-06  0.0000E+00  0.0000E+00  0.0000E+00  0.0000E+00  0.0000E+00
    -21.094  0.6215E-01  0.9727E-02  0.2291E-03  0.1624E-04  0.0000E+00  0.0000E+00  0.0000E+00  0.0000E+00  0.0000E+00
    -20.976  0.1248E+00  0.1954E-01  0.4601E-03  0.3261E-04  0.0000E+00  0.0000E+00  0.0000E+00  0.0000E+00  0.0000E+00
    -20.859  0.2746E-01  0.4298E-02  0.1012E-03  0.7175E-05  0.0000E+00  0.0000E+00  0.0000E+00  0.0000E+00  0.0000E+00
    -20.742  0.5679E-03  0.8889E-04  0.2094E-05  0.1484E-06  0.0000E+00  0.0000E+00  0.0000E+00  0.0000E+00  0.0000E+00
    -20.624  0.9221E-06  0.1443E-06  0.3399E-08  0.2410E-09  0.0000E+00  0.0000E+00  0.0000E+00  0.0000E+00  0.0000E+00
    -20.507  0.1065E-09  0.1667E-10  0.3926E-12  0.2783E-13  0.0000E+00  0.0000E+00  0.0000E+00  0.0000E+00  0.0000E+00
    -20.390  0.8234E-15  0.1289E-15  0.3035E-17  0.2151E-18  0.0000E+00  0.0000E+00  0.0000E+00  0.0000E+00  0.0000E+00
    -20.272  0.0000E+00  0.0000E+00  0.0000E+00  0.0000E+00  0.0000E+00  0.0000E+00  0.0000E+00  0.0000E+00  0.0000E+00
    -20.155  0.0000E+00  0.0000E+00  0.0000E+00  0.0000E+00  0.0000E+00  0.0000E+00  0.0000E+00  0.0000E+00  0.0000E+00
    -20.037  0.0000E+00  0.0000E+00  0.0000E+00  0.0000E+00  0.0000E+00  0.0000E+00  0.0000E+00  0.0000E+00  0.0000E+00
    -19.920  0.0000E+00  0.0000E+00  0.0000E+00  0.0000E+00  0.0000E+00  0.0000E+00  0.0000E+00  0.0000E+00  0.0000E+00
    -19.803  0.0000E+00  0.0000E+00  0.0000E+00  0.0000E+00  0.0000E+00  0.0000E+00  0.0000E+00  0.0000E+00  0.0000E+00
    -19.685  0.0000E+00  0.0000E+00  0.0000E+00  0.0000E+00  0.0000E+00  0.0000E+00  0.0000E+00  0.0000E+00  0.0000E+00
    -19.568  0.0000E+00  0.0000E+00  0.0000E+00  0.0000E+00  0.0000E+00  0.0000E+00  0.0000E+00  0.0000E+00  0.0000E+00
    -19.451  0.3837E-13  0.2227E-14  0.1732E-15  0.1781E-19  0.0000E+00  0.0000E+00  0.0000E+00  0.0000E+00  0.0000E+00
    -19.333  0.3069E-08  0.1782E-09  0.1385E-10  0.1425E-14  0.0000E+00  0.0000E+00  0.0000E+00  0.0000E+00  0.0000E+00
    -19.216  0.1676E-04  0.9727E-06  0.7564E-07  0.7778E-11  0.0000E+00  0.0000E+00  0.0000E+00  0.0000E+00  0.0000E+00
    -19.098  0.6587E-02  0.3824E-03  0.2974E-04  0.3058E-08  0.0000E+00  0.0000E+00  0.0000E+00  0.0000E+00  0.0000E+00
    -18.981  0.2085E+00  0.1211E-01  0.9414E-03  0.9681E-07  0.0000E+00  0.0000E+00  0.0000E+00  0.0000E+00  0.0000E+00
    -18.864  0.6428E+00  0.3732E-01  0.2902E-02  0.2984E-06  0.0000E+00  0.0000E+00  0.0000E+00  0.0000E+00  0.0000E+00
    -18.746  0.2181E+00  0.1266E-01  0.9846E-03  0.1013E-06  0.0000E+00  0.0000E+00  0.0000E+00  0.0000E+00  0.0000E+00
    -18.629  0.7235E-02  0.4200E-03  0.3266E-04  0.3358E-08  0.0000E+00  0.0000E+00  0.0000E+00  0.0000E+00  0.0000E+00
    -18.512  0.1939E-04  0.1125E-05  0.8751E-07  0.8999E-11  0.0000E+00  0.0000E+00  0.0000E+00  0.0000E+00  0.0000E+00
    -18.394  0.3746E-08  0.2175E-09  0.1691E-10  0.1739E-14  0.0000E+00  0.0000E+00  0.0000E+00  0.0000E+00  0.0000E+00
    -18.277  0.4955E-13  0.2877E-14  0.2237E-15  0.2300E-19  0.0000E+00  0.0000E+00  0.0000E+00  0.0000E+00  0.0000E+00
    -18.159  0.0000E+00  0.0000E+00  0.0000E+00  0.0000E+00  0.0000E+00  0.0000E+00  0.0000E+00  0.0000E+00  0.0000E+00
    -18.042  0.0000E+00  0.0000E+00  0.0000E+00  0.0000E+00  0.0000E+00  0.0000E+00  0.0000E+00  0.0000E+00  0.0000E+00
    -17.925  0.8977E-14  0.4967E-16  0.1237E-17  0.1045E-18  0.0000E+00  0.0000E+00  0.0000E+00  0.0000E+00  0.0000E+00
    -17.807  0.1271E-08  0.7033E-11  0.1752E-12  0.1480E-13  0.0000E+00  0.0000E+00  0.0000E+00  0.0000E+00  0.0000E+00
    -17.690  0.1224E-04  0.6771E-07  0.1687E-08  0.1425E-09  0.0000E+00  0.0000E+00  0.0000E+00  0.0000E+00  0.0000E+00
    -17.573  0.8360E-02  0.4626E-04  0.1152E-05  0.9734E-07  0.0000E+00  0.0000E+00  0.0000E+00  0.0000E+00  0.0000E+00
    -17.455  0.4459E+00  0.2467E-02  0.6146E-04  0.5193E-05  0.0000E+00  0.0000E+00  0.0000E+00  0.0000E+00  0.0000E+00
    -17.338  0.2218E+01  0.1227E-01  0.3056E-03  0.2582E-04  0.0000E+00  0.0000E+00  0.0000E+00  0.0000E+00  0.0000E+00
    -17.220  0.1205E+01  0.6670E-02  0.1661E-03  0.1404E-04  0.0000E+00  0.0000E+00  0.0000E+00  0.0000E+00  0.0000E+00
    -17.103  0.6670E-01  0.3691E-03  0.9192E-05  0.7767E-06  0.0000E+00  0.0000E+00  0.0000E+00  0.0000E+00  0.0000E+00
    -16.986  0.3089E-03  0.1709E-05  0.4257E-07  0.3597E-08  0.0000E+00  0.0000E+00  0.0000E+00  0.0000E+00  0.0000E+00
    -16.868  0.1050E-06  0.5809E-09  0.1447E-10  0.1223E-11  0.0000E+00  0.0000E+00  0.0000E+00  0.0000E+00  0.0000E+00
    -16.751  0.2459E-11  0.1361E-13  0.3389E-15  0.2864E-16  0.0000E+00  0.0000E+00  0.0000E+00  0.0000E+00  0.0000E+00
    -16.634  0.0000E+00  0.0000E+00  0.0000E+00  0.0000E+00  0.0000E+00  0.0000E+00  0.0000E+00  0.0000E+00  0.0000E+00
    -16.516  0.0000E+00  0.0000E+00  0.0000E+00  0.0000E+00  0.0000E+00  0.0000E+00  0.0000E+00  0.0000E+00  0.0000E+00
    -16.399  0.0000E+00  0.0000E+00  0.0000E+00  0.0000E+00  0.0000E+00  0.0000E+00  0.0000E+00  0.0000E+00  0.0000E+00
    -16.281  0.0000E+00  0.0000E+00  0.0000E+00  0.0000E+00  0.0000E+00  0.0000E+00  0.0000E+00  0.0000E+00  0.0000E+00
    -16.164  0.9306E-18  0.3976E-19  0.1994E-17  0.2337E-19  0.0000E+00  0.0000E+00  0.0000E+00  0.0000E+00  0.0000E+00
    -16.047  0.2564E-12  0.1095E-13  0.5492E-12  0.6438E-14  0.0000E+00  0.0000E+00  0.0000E+00  0.0000E+00  0.0000E+00
    -15.929  0.5225E-08  0.2232E-09  0.1119E-07  0.1312E-09  0.0000E+00  0.0000E+00  0.0000E+00  0.0000E+00  0.0000E+00
    -15.812  0.7435E-05  0.3176E-06  0.1593E-04  0.1867E-06  0.0000E+00  0.0000E+00  0.0000E+00  0.0000E+00  0.0000E+00
    -15.695  0.7982E-03  0.3410E-04  0.1710E-02  0.2004E-04  0.0000E+00  0.0000E+00  0.0000E+00  0.0000E+00  0.0000E+00
    -15.577  0.7549E-02  0.3225E-03  0.1617E-01  0.1896E-03  0.0000E+00  0.0000E+00  0.0000E+00  0.0000E+00  0.0000E+00
    -15.460  0.7590E-02  0.3243E-03  0.1626E-01  0.1906E-03  0.0000E+00  0.0000E+00  0.0000E+00  0.0000E+00  0.0000E+00
    -15.343  0.8118E-03  0.3468E-04  0.1739E-02  0.2038E-04  0.0000E+00  0.0000E+00  0.0000E+00  0.0000E+00  0.0000E+00
    -15.225  0.5939E-04  0.6564E-05  0.1666E-04  0.1923E-06  0.0000E+00  0.0000E+00  0.0000E+00  0.0000E+00  0.0000E+00
    -15.108  0.1508E-01  0.1818E-02  0.7551E-04  0.4614E-09  0.0000E+00  0.0000E+00  0.0000E+00  0.0000E+00  0.0000E+00
    -14.990  0.3605E+00  0.4347E-01  0.1805E-02  0.7760E-08  0.0000E+00  0.0000E+00  0.0000E+00  0.0000E+00  0.0000E+00
    -14.873  0.8587E+00  0.1035E+00  0.4300E-02  0.1848E-07  0.0000E+00  0.0000E+00  0.0000E+00  0.0000E+00  0.0000E+00
    -14.756  0.2248E+00  0.2710E-01  0.1126E-02  0.4838E-08  0.0000E+00  0.0000E+00  0.0000E+00  0.0000E+00  0.0000E+00
    -14.638  0.5619E-02  0.6774E-03  0.2813E-04  0.1209E-09  0.0000E+00  0.0000E+00  0.0000E+00  0.0000E+00  0.0000E+00
    -14.521  0.1115E-04  0.1344E-05  0.5582E-07  0.2399E-12  0.0000E+00  0.0000E+00  0.0000E+00  0.0000E+00  0.0000E+00
    -14.404  0.1582E-08  0.1907E-09  0.7920E-11  0.3404E-16  0.0000E+00  0.0000E+00  0.0000E+00  0.0000E+00  0.0000E+00
    -14.286  0.1529E-13  0.1843E-14  0.7655E-16  0.3290E-21  0.0000E+00  0.0000E+00  0.0000E+00  0.0000E+00  0.0000E+00
    -14.169  0.0000E+00  0.0000E+00  0.0000E+00  0.0000E+00  0.0000E+00  0.0000E+00  0.0000E+00  0.0000E+00  0.0000E+00
    -14.051  0.1173E-17  0.1324E-17  0.4060E-15  0.4218E-17  0.0000E+00  0.0000E+00  0.0000E+00  0.0000E+00  0.0000E+00
    -13.934  0.1435E-12  0.1619E-12  0.4965E-10  0.5159E-12  0.0000E+00  0.0000E+00  0.0000E+00  0.0000E+00  0.0000E+00
    -13.817  0.1197E-08  0.1351E-08  0.4143E-06  0.4305E-08  0.0000E+00  0.0000E+00  0.0000E+00  0.0000E+00  0.0000E+00
    -13.699  0.7113E-06  0.8027E-06  0.2462E-03  0.2558E-05  0.0000E+00  0.0000E+00  0.0000E+00  0.0000E+00  0.0000E+00
    -13.582  0.3325E-04  0.3752E-04  0.1151E-01  0.1195E-03  0.0000E+00  0.0000E+00  0.0000E+00  0.0000E+00  0.0000E+00
    -13.465  0.1465E-03  0.1653E-03  0.5069E-01  0.5267E-03  0.0000E+00  0.0000E+00  0.0000E+00  0.0000E+00  0.0000E+00