       N       E                     dE             d eps       ncg     rms          rms(c)
RMM:   1     0.870271203266E+03    0.87027E+03   -0.11644E+04    32   0.914E+02
RMM:   2     0.452510124764E+03   -0.41776E+03   -0.46872E+03    32   0.206E+02
RMM:   3     0.266368475181E+03   -0.18614E+03   -0.28984E+03    32   0.157E+02
RMM:   4     0.105037745478E+03   -0.16133E+03   -0.19584E+03    32   0.166E+02
RMM:   5     0.381347157271E+01   -0.10122E+03   -0.96712E+02    32   0.128E+02
RMM:   6    -0.605861749998E+02   -0.64400E+02   -0.59739E+02    32   0.102E+02
RMM:   7    -0.905701914255E+02   -0.29984E+02   -0.23701E+02    32   0.627E+01
RMM:   8    -0.101153826457E+03   -0.10584E+02   -0.92734E+01    32   0.383E+01
RMM:   9    -0.103597736628E+03   -0.24439E+01   -0.23044E+01    32   0.200E+01
RMM:  10    -0.104457729742E+03   -0.85999E+00   -0.73815E+00    32   0.114E+01
RMM:  11    -0.104720720492E+03   -0.26299E+00   -0.24788E+00    32   0.635E+00
RMM:  12    -0.104819125464E+03   -0.98405E-01   -0.92902E-01    32   0.393E+00
RMM:  13    -0.104856320671E+03   -0.37195E-01   -0.36607E-01    32   0.229E+00
RMM:  14    -0.104871813137E+03   -0.15492E-01   -0.14968E-01    32   0.149E+00
RMM:  15    -0.104882345623E+03   -0.10532E-01   -0.10493E-01    72   0.901E-01
RMM:  16    -0.104883182445E+03   -0.83682E-03   -0.85360E-03    72   0.324E-01
RMM:  17    -0.104883257869E+03   -0.75424E-04   -0.74732E-04    69   0.105E-01
RMM:  18    -0.104883263431E+03   -0.55615E-05   -0.56861E-05    47   0.275E-02
RMM:  19    -0.104883264563E+03   -0.11324E-05   -0.11283E-05    40   0.141E-02
RMM:  20    -0.104883264824E+03   -0.26098E-06   -0.25927E-06    35   0.804E-03    0.172E+01
RMM:  21    -0.977533464025E+02    0.71299E+01   -0.16463E+01   112   0.166E+01    0.917E+00
RMM:  22    -0.963034381229E+02    0.14499E+01   -0.22698E+00   112   0.584E+00    0.432E+00
RMM:  23    -0.960136134717E+02    0.28982E+00   -0.54461E-01   112   0.300E+00    0.109E+00
RMM:  24    -0.959874818440E+02    0.26132E-01   -0.24709E-02   112   0.827E-01    0.332E-01
RMM:  25    -0.959827943425E+02    0.46875E-02   -0.36501E-03   102   0.278E-01    0.182E-01
RMM:  26    -0.959846447028E+02   -0.18504E-02   -0.90653E-03   105   0.327E-01    0.857E-02
RMM:  27    -0.959888616813E+02   -0.42170E-02   -0.22548E-03    93   0.162E-01    0.546E-02
RMM:  28    -0.959944978536E+02   -0.56362E-02   -0.69431E-04    79   0.936E-02    0.292E-02
RMM:  29    -0.959992153450E+02   -0.47175E-02   -0.55127E-04    75   0.801E-02    0.197E-02
RMM:  30    -0.960020461245E+02   -0.28308E-02   -0.37040E-04    70   0.654E-02    0.903E-03
RMM:  31    -0.960026929306E+02   -0.64681E-03   -0.73080E-05    56   0.291E-02    0.500E-03
RMM:  32    -0.960029717207E+02   -0.27879E-03   -0.55348E-05    53   0.224E-02    0.259E-03
RMM:  33    -0.960030385012E+02   -0.66781E-04   -0.13450E-05    41   0.113E-02    0.155E-03
RMM:  34    -0.960030785001E+02   -0.39999E-04   -0.71206E-06    33   0.757E-03    0.720E-04
RMM:  35    -0.960030923092E+02   -0.13809E-04   -0.31951E-06    31   0.580E-03    0.379E-04
RMM:  36    -0.960030952916E+02   -0.29823E-05   -0.11616E-06    23   0.405E-03
   1 F= -.96003095E+02 E0= -.96003095E+02  d E =-.960031E+02
       N       E                     dE             d eps       ncg     rms          rms(c)
RMM:   1    -0.960048821754E+02   -0.17899E-02   -0.39874E+00    64   0.116E+01    0.438E-01
RMM:   2    -0.960174774360E+02   -0.12595E-01   -0.17899E-01    64   0.314E+00    0.235E-01
RMM:   3    -0.960197614385E+02   -0.22840E-02   -0.29382E-02    67   0.106E+00    0.180E-01
RMM:   4    -0.960193630053E+02    0.39843E-03   -0.39645E-03    65   0.381E-01    0.986E-02
RMM:   5    -0.960192264020E+02    0.13660E-03   -0.20190E-03    64   0.225E-01    0.466E-02
RMM:   6    -0.960192492538E+02   -0.22852E-04   -0.54320E-04    65   0.119E-01    0.174E-02
RMM:   7    -0.960193173647E+02   -0.68111E-04   -0.20746E-04    66   0.677E-02    0.225E-02
RMM:   8    -0.960193269133E+02   -0.95485E-05   -0.89937E-05    57   0.455E-02
   2 F= -.96019327E+02 E0= -.96019327E+02  d E =-.162316E-01
       N       E                     dE             d eps       ncg     rms          rms(c)
RMM:   1    -0.960198868483E+02   -0.56948E-03   -0.17783E-01    64   0.246E+00    0.874E-02
RMM:   2    -0.960205368570E+02   -0.65001E-03   -0.79856E-03    64   0.669E-01    0.503E-02
RMM:   3    -0.960206851956E+02   -0.14834E-03   -0.13041E-03    67   0.224E-01    0.378E-02
RMM:   4    -0.960207050392E+02   -0.19844E-04   -0.17409E-04    63   0.799E-02    0.196E-02
RMM:   5    -0.960207345459E+02   -0.29507E-04   -0.80778E-05    61   0.454E-02    0.879E-03
RMM:   6    -0.960207363191E+02   -0.17732E-05   -0.19901E-05    42   0.223E-02
   3 F= -.96020736E+02 E0= -.96020736E+02  d E =-.176410E-01
       N       E                     dE             d eps       ncg     rms          rms(c)
RMM:   1    -0.960230644293E+02   -0.23299E-02   -0.54884E-01    64   0.462E+00    0.186E-01
RMM:   2    -0.960250613847E+02   -0.19970E-02   -0.25963E-02    64   0.117E+00    0.944E-02
RMM:   3    -0.960254972471E+02   -0.43586E-03   -0.51166E-03    69   0.398E-01    0.908E-02
RMM:   4    -0.960254018820E+02    0.95365E-04   -0.50070E-04    65   0.140E-01    0.662E-02
RMM:   5    -0.960254053061E+02   -0.34242E-05   -0.11104E-03    64   0.145E-01    0.405E-02
RMM:   6    -0.960253651195E+02    0.40187E-04   -0.31086E-04    63   0.889E-02    0.144E-02
RMM:   7    -0.960253742053E+02   -0.90859E-05   -0.56142E-05    53   0.391E-02
   4 F= -.96025374E+02 E0= -.96025374E+02  d E =-.463789E-02
       N       E                     dE             d eps       ncg     rms          rms(c)
RMM:   1    -0.960254591816E+02   -0.94062E-04   -0.36345E-02    64   0.119E+00    0.502E-02
RMM:   2    -0.960255890140E+02   -0.12983E-03   -0.17325E-03    64   0.302E-01    0.246E-02
RMM:   3    -0.960256227133E+02   -0.33699E-04   -0.35847E-04    69   0.104E-01    0.232E-02
RMM:   4    -0.960256162664E+02    0.64469E-05   -0.35834E-05    51   0.366E-02    0.170E-02
RMM:   5    -0.960256170862E+02   -0.81982E-06   -0.68750E-05    57   0.357E-02    0.103E-02
RMM:   6    -0.960256172531E+02   -0.16692E-06   -0.23726E-05    45   0.240E-02
   5 F= -.96025617E+02 E0= -.96025617E+02  d E =-.488093E-02
       N       E                     dE             d eps       ncg     rms          rms(c)
RMM:   1    -0.960262519976E+02   -0.63491E-03   -0.18951E-01    64   0.266E+00    0.103E-01
RMM:   2    -0.960269315548E+02   -0.67956E-03   -0.87414E-03    64   0.645E-01    0.620E-02
RMM:   3    -0.960270363092E+02   -0.10475E-03   -0.15639E-03    67   0.224E-01    0.559E-02
RMM:   4    -0.960270119062E+02    0.24403E-04   -0.21895E-04    64   0.872E-02    0.341E-02
RMM:   5    -0.960270044312E+02    0.74749E-05   -0.17353E-04    64   0.632E-02    0.116E-02
RMM:   6    -0.960270027201E+02    0.17112E-05   -0.45241E-05    53   0.351E-02
   6 F= -.96027003E+02 E0= -.96027003E+02  d E =-.138547E-02
       N       E                     dE             d eps       ncg     rms          rms(c)
RMM:   1    -0.960270028619E+02    0.15693E-05   -0.56074E-04    64   0.145E-01    0.761E-03
RMM:   2    -0.960270059805E+02   -0.31186E-05   -0.27966E-05    45   0.366E-02    0.311E-03
RMM:   3    -0.960270078954E+02   -0.19149E-05   -0.45640E-06    40   0.117E-02    0.218E-03
RMM:   4    -0.960270096059E+02   -0.17104E-05   -0.70937E-07    33   0.527E-03    0.110E-03
RMM:   5    -0.960270114857E+02   -0.18799E-05   -0.35143E-07    25   0.369E-03    0.460E-04
RMM:   6    -0.960270127607E+02   -0.12750E-05   -0.19993E-08    17   0.277E-03
   7 F= -.96027013E+02 E0= -.96027013E+02  d E =-.139551E-02
       N       E                     dE             d eps       ncg     rms          rms(c)
RMM:   1    -0.960274384165E+02   -0.42693E-03   -0.48236E-02    64   0.137E+00    0.527E-02
RMM:   2    -0.960276147996E+02   -0.17638E-03   -0.22170E-03    64   0.328E-01    0.281E-02
RMM:   3    -0.960276461803E+02   -0.31381E-04   -0.40823E-04    65   0.113E-01    0.229E-02
RMM:   4    -0.960276438126E+02    0.23677E-05   -0.62788E-05    59   0.465E-02    0.119E-02
RMM:   5    -0.960276447762E+02   -0.96356E-06   -0.23668E-05    43   0.261E-02    0.491E-03
RMM:   6    -0.960276458589E+02   -0.10827E-05   -0.67345E-06    40   0.139E-02
   8 F= -.96027646E+02 E0= -.96027646E+02  d E =-.633098E-03
       N       E                     dE             d eps       ncg     rms          rms(c)
RMM:   1    -0.960276793213E+02   -0.34545E-04   -0.98503E-03    64   0.620E-01    0.236E-02
RMM:   2    -0.960277151004E+02   -0.35779E-04   -0.45892E-04    64   0.149E-01    0.129E-02
RMM:   3    -0.960277216646E+02   -0.65641E-05   -0.89214E-05    62   0.527E-02    0.114E-02
RMM:   4    -0.960277215342E+02    0.13040E-06   -0.13318E-05    40   0.203E-02    0.729E-03
RMM:   5    -0.960277220296E+02   -0.49541E-06   -0.68787E-06    40   0.135E-02    0.246E-03
RMM:   6    -0.960277223723E+02   -0.34273E-06   -0.15664E-06    40   0.707E-03
   9 F= -.96027722E+02 E0= -.96027722E+02  d E =-.709612E-03
       N       E                     dE             d eps       ncg     rms          rms(c)
RMM:   1    -0.960279922266E+02   -0.27020E-03   -0.47481E-02    64   0.133E+00    0.567E-02
RMM:   2    -0.960281515553E+02   -0.15933E-03   -0.21561E-03    64   0.335E-01    0.260E-02
RMM:   3    -0.960281849513E+02   -0.33396E-04   -0.40668E-04    66   0.113E-01    0.230E-02
RMM:   4    -0.960281854170E+02   -0.46570E-06   -0.61093E-05    55   0.415E-02    0.156E-02
RMM:   5    -0.960281845348E+02    0.88222E-06   -0.24416E-05    43   0.249E-02    0.490E-03
RMM:   6    -0.960281847684E+02   -0.23356E-06   -0.48307E-06    40   0.119E-02
  10 F= -.96028185E+02 E0= -.96028185E+02  d E =-.462396E-03
