 vasp.6.4.1 05Apr23 (build Jun 16 2023 21:25:53) gamma-only                     
  
 executed on             LinuxIFC date 2024.07.14  18:52:12
 running    8 mpi-ranks, with    1 threads/rank, on    1 nodes
 distrk:  each k-point on    8 cores,    1 groups
 distr:  one band on NCORE=   2 cores,    4 groups


--------------------------------------------------------------------------------------------------------


 INCAR:
   SYSTEM = QM9
   ISMEAR = 0
   SIGMA = 0.1
   ENCUT = 500
   EDIFF = 1E-5
   NELM = 150
   NELMIN = 6
   NELMDL = -20
   ISIF = 2
   ALGO = V
   LREAL = Auto
   ISYM = 0
   LORBIT = 11
   IBRION = 2
   POTIM = 0.2
   EDIFFG = -0.02
   NSW = 10
   LWAVE = .FALSE.
   LCHARG = .FALSE.
   NPAR = 4

 POTCAR:    PAW_PBE C 08Apr2002                   
 POTCAR:    PAW_PBE F 08Apr2002                   
 POTCAR:    PAW_PBE H 15Jun2001                   
 POTCAR:    PAW_PBE N 08Apr2002                   
 POTCAR:    PAW_PBE C 08Apr2002                   
   SHA256 =  253f7b50bb8d59471dbedb8285d89021f4a42ed1a2c5d38a03a736e69125dd95 C/POTCAR              
   COPYR  = (c) Copyright 08Apr2002 Georg Kresse                                                    
   COPYR  = This file is part of the software VASP. Any use, copying, and all other rights are regul
   COPYR  = If you do not have a valid VASP license, you may not use, copy or distribute this file. 
   VRHFIN =C: s2p2                                                                                  
   LEXCH  = PE                                                                                      
   EATOM  =   147.1560 eV,   10.8157 Ry                                                             
                                                                                                    
   TITEL  = PAW_PBE C 08Apr2002                                                                     
   LULTRA =        F    use ultrasoft PP ?                                                          
   IUNSCR =        1    unscreen: 0-lin 1-nonlin 2-no                                               
   RPACOR =    1.200    partial core radius                                                         
   POMASS =   12.011; ZVAL   =    4.000    mass and valenz                                          
   RCORE  =    1.500    outmost cutoff radius                                                       
   RWIGS  =    1.630; RWIGS  =    0.863    wigner-seitz radius (au A)                               
   ENMAX  =  400.000; ENMIN  =  300.000 eV                                                          
   ICORE  =        2    local potential                                                             
   LCOR   =        T    correct aug charges                                                         
   LPAW   =        T    paw PP                                                                      
   EAUG   =  644.873                                                                                
   DEXC   =    0.000                                                                                
   RMAX   =    1.529    core radius for proj-oper                                                   
   RAUG   =    1.300    factor for augmentation sphere                                              
   RDEP   =    1.501    radius for radial grids                                                     
   RDEPT  =    1.300    core radius for aug-charge                                                  
                                                                                                    
   Atomic configuration                                                                             
    4 entries                                                                                       
     n  l   j            E        occ.                                                              
     1  0  0.50      -273.3789   2.0000                                                             
     2  0  0.50       -13.7508   2.0000                                                             
     2  1  0.50        -5.2854   2.0000                                                             
     3  2  1.50        -5.4423   0.0000                                                             
   Description                                                                                      
     l       E           TYP  RCUT    TYP  RCUT                                                     
     0    -13.7508458     23  1.200                                                                 
     0     -8.2022199     23  1.200                                                                 
     1     -5.2854383     23  1.500                                                                 
     1     34.0145650     23  1.500                                                                 
     2     -5.4423304      7  1.500                                                                 
  local pseudopotential read in
  partial core-charges read in
  partial kinetic energy density read in
  atomic valenz-charges read in
  non local Contribution for L=           0  read in
    real space projection operators read in
  non local Contribution for L=           0  read in
    real space projection operators read in
  non local Contribution for L=           1  read in
    real space projection operators read in
  non local Contribution for L=           1  read in
    real space projection operators read in
    PAW grid and wavefunctions read in
 
   number of l-projection  operators is LMAX  =           4
   number of lm-projection operators is LMMAX =           8
 
 POTCAR:    PAW_PBE F 08Apr2002                   
   SHA256 =  53c630871ac675939349fc2b976745ee17808dedc90b5bdde026bc81f0faf456 F/POTCAR              
   COPYR  = (c) Copyright 08Apr2002 Georg Kresse                                                    
   COPYR  = This file is part of the software VASP. Any use, copying, and all other rights are regul
   COPYR  = If you do not have a valid VASP license, you may not use, copy or distribute this file. 
   VRHFIN =F: s2p5                                                                                  
   LEXCH  = PE                                                                                      
   EATOM  =   659.6475 eV,   48.4827 Ry                                                             
                                                                                                    
   TITEL  = PAW_PBE F 08Apr2002                                                                     
   LULTRA =        F    use ultrasoft PP ?                                                          
   IUNSCR =        1    unscreen: 0-lin 1-nonlin 2-no                                               
   RPACOR =    1.200    partial core radius                                                         
   POMASS =   18.998; ZVAL   =    7.000    mass and valenz                                          
   RCORE  =    1.520    outmost cutoff radius                                                       
   RWIGS  =    1.500; RWIGS  =    0.794    wigner-seitz radius (au A)                               
   ENMAX  =  400.000; ENMIN  =  300.000 eV                                                          
   ICORE  =        2    local potential                                                             
   LCOR   =        T    correct aug charges                                                         
   LPAW   =        T    paw PP                                                                      
   EAUG   =  613.614                                                                                
   RMAX   =    1.555    core radius for proj-oper                                                   
   RAUG   =    1.300    factor for augmentation sphere                                              
   RDEP   =    1.539    radius for radial grids                                                     
   RDEPT  =    1.299    core radius for aug-charge                                                  
                                                                                                    
   Atomic configuration                                                                             
    4 entries                                                                                       
     n  l   j            E        occ.                                                              
     1  0  0.50      -663.3661   2.0000                                                             
     2  0  0.50       -29.8995   2.0000                                                             
     2  1  0.50       -11.1114   5.0000                                                             
     3  2  1.50       -10.8847   0.0000                                                             
   Description                                                                                      
     l       E           TYP  RCUT    TYP  RCUT                                                     
     0    -29.8995018     23  1.200                                                                 
     0     -9.5240782     23  1.200                                                                 
     1    -11.1113914     23  1.520                                                                 
     1      1.3605826     23  1.520                                                                 
     2    -10.8846608      7  1.500                                                                 
  local pseudopotential read in
  partial core-charges read in
  partial kinetic energy density read in
  atomic valenz-charges read in
  non local Contribution for L=           0  read in
    real space projection operators read in
  non local Contribution for L=           0  read in
    real space projection operators read in
  non local Contribution for L=           1  read in
    real space projection operators read in
  non local Contribution for L=           1  read in
    real space projection operators read in
    PAW grid and wavefunctions read in
 
   number of l-projection  operators is LMAX  =           4
   number of lm-projection operators is LMMAX =           8
 
 POTCAR:    PAW_PBE H 15Jun2001                   
   SHA256 =  030f79b5d3ab3cf0e668861823c8fb652ff669f3e15e46930bd03bfd63a607b6 H/POTCAR              
   COPYR  = (c) Copyright 15Jun2001 Georg Kresse                                                    
   COPYR  = This file is part of the software VASP. Any use, copying, and all other rights are regul
   COPYR  = If you do not have a valid VASP license, you may not use, copy or distribute this file. 
   VRHFIN =H: ultrasoft test                                                                        
   LEXCH  = PE                                                                                      
   EATOM  =    12.4884 eV,    0.9179 Ry                                                             
                                                                                                    
   TITEL  = PAW_PBE H 15Jun2001                                                                     
   LULTRA =        F    use ultrasoft PP ?                                                          
   IUNSCR =        0    unscreen: 0-lin 1-nonlin 2-no                                               
   RPACOR =    0.000    partial core radius                                                         
   POMASS =    1.000; ZVAL   =    1.000    mass and valenz                                          
   RCORE  =    1.100    outmost cutoff radius                                                       
   RWIGS  =    0.700; RWIGS  =    0.370    wigner-seitz radius (au A)                               
   ENMAX  =  250.000; ENMIN  =  200.000 eV                                                          
   RCLOC  =    0.701    cutoff for local pot                                                        
   LCOR   =        T    correct aug charges                                                         
   LPAW   =        T    paw PP                                                                      
   EAUG   =  400.000                                                                                
   RMAX   =    1.123    core radius for proj-oper                                                   
   RAUG   =    1.200    factor for augmentation sphere                                              
   RDEP   =    1.112    radius for radial grids                                                     
   RDEPT  =    0.926    core radius for aug-charge                                                  
                                                                                                    
   Atomic configuration                                                                             
    2 entries                                                                                       
     n  l   j            E        occ.                                                              
     1  0  0.50        -6.4927   1.0000                                                             
     2  1  0.50        -3.4015   0.0000                                                             
   Description                                                                                      
     l       E           TYP  RCUT    TYP  RCUT                                                     
     0     -6.4927494     23  1.100                                                                 
     0      6.8029130     23  1.100                                                                 
     1     -4.0817478     23  1.100                                                                 
  local pseudopotential read in
  atomic valenz-charges read in
  non local Contribution for L=           0  read in
    real space projection operators read in
  non local Contribution for L=           0  read in
    real space projection operators read in
  non local Contribution for L=           1  read in
    real space projection operators read in
    PAW grid and wavefunctions read in
 
   number of l-projection  operators is LMAX  =           3
   number of lm-projection operators is LMMAX =           5
 
 POTCAR:    PAW_PBE N 08Apr2002                   
   SHA256 =  e053789ff3a61a86a1b75d8a110fcc91f86041011e7b0817c7c99e4e8a6349d7 N/POTCAR              
   COPYR  = (c) Copyright 08Apr2002 Georg Kresse                                                    
   COPYR  = This file is part of the software VASP. Any use, copying, and all other rights are regul
   COPYR  = If you do not have a valid VASP license, you may not use, copy or distribute this file. 
   VRHFIN =N: s2p3                                                                                  
   LEXCH  = PE                                                                                      
   EATOM  =   264.5486 eV,   19.4438 Ry                                                             
                                                                                                    
   TITEL  = PAW_PBE N 08Apr2002                                                                     
   LULTRA =        F    use ultrasoft PP ?                                                          
   IUNSCR =        1    unscreen: 0-lin 1-nonlin 2-no                                               
   RPACOR =    1.200    partial core radius                                                         
   POMASS =   14.001; ZVAL   =    5.000    mass and valenz                                          
   RCORE  =    1.500    outmost cutoff radius                                                       
   RWIGS  =    1.400; RWIGS  =    0.741    wigner-seitz radius (au A)                               
   ENMAX  =  400.000; ENMIN  =  300.000 eV                                                          
   ICORE  =        2    local potential                                                             
   LCOR   =        T    correct aug charges                                                         
   LPAW   =        T    paw PP                                                                      
   EAUG   =  627.112                                                                                
   DEXC   =    0.000                                                                                
   RMAX   =    1.529    core radius for proj-oper                                                   
   RAUG   =    1.300    factor for augmentation sphere                                              
   RDEP   =    1.514    radius for radial grids                                                     
   RDEPT  =    1.338    core radius for aug-charge                                                  
                                                                                                    
   Atomic configuration                                                                             
    4 entries                                                                                       
     n  l   j            E        occ.                                                              
     1  0  0.50      -384.7179   2.0000                                                             
     2  0  0.50       -18.5828   2.0000                                                             
     2  1  0.50        -7.0898   3.0000                                                             
     3  2  1.50        -6.8029   0.0000                                                             
   Description                                                                                      
     l       E           TYP  RCUT    TYP  RCUT                                                     
     0    -18.5828119     23  1.200                                                                 
     0    -13.5018863     23  1.200                                                                 
     1     -7.0897853     23  1.500                                                                 
     1      9.5240782     23  1.500                                                                 
     2     -6.8029130      7  1.500                                                                 
  local pseudopotential read in
  partial core-charges read in
  partial kinetic energy density read in
  atomic valenz-charges read in
  non local Contribution for L=           0  read in
    real space projection operators read in
  non local Contribution for L=           0  read in
    real space projection operators read in
  non local Contribution for L=           1  read in
    real space projection operators read in
  non local Contribution for L=           1  read in
    real space projection operators read in
    PAW grid and wavefunctions read in
 
   number of l-projection  operators is LMAX  =           4
   number of lm-projection operators is LMMAX =           8
 
 Optimization of the real space projectors (new method)

 maximal supplied QI-value         = 25.13
 optimisation between [QCUT,QGAM] = [ 11.31, 22.87] = [ 35.82,146.48] Ry 
 Optimized for a Real-space Cutoff    1.00 Angstroem

   l    n(q)    QCUT    max X(q) W(low)/X(q) W(high)/X(q)  e(spline) 
   0      7    11.310   115.676    0.43E-03    0.13E-02    0.19E-06
   0      7    11.310    87.132    0.43E-03    0.13E-02    0.18E-06
   1      6    11.310     4.429    0.42E-03    0.74E-03    0.11E-06
   1      6    11.310     2.733    0.34E-03    0.55E-03    0.92E-07
 Optimization of the real space projectors (new method)

 maximal supplied QI-value         = 24.76
 optimisation between [QCUT,QGAM] = [ 11.39, 22.77] = [ 36.31,145.25] Ry 
 Optimized for a Real-space Cutoff    1.00 Angstroem

   l    n(q)    QCUT    max X(q) W(low)/X(q) W(high)/X(q)  e(spline) 
   0      7    11.387    14.049    0.29E-03    0.95E-03    0.11E-06
   0      7    11.387     8.945    0.38E-03    0.13E-02    0.15E-06
   1      6    11.387     7.086    0.33E-03    0.10E-02    0.16E-06
   1      6    11.387     6.747    0.33E-03    0.86E-03    0.15E-06
 Optimization of the real space projectors (new method)

 maximal supplied QI-value         = 34.20
 optimisation between [QCUT,QGAM] = [ 11.29, 22.57] = [ 35.68,142.71] Ry 
 Optimized for a Real-space Cutoff    1.16 Angstroem

   l    n(q)    QCUT    max X(q) W(low)/X(q) W(high)/X(q)  e(spline) 
   0      8    11.287    19.460    0.40E-03    0.73E-03    0.16E-06
   0      8    11.287    12.209    0.38E-03    0.70E-03    0.15E-06
   1      7    11.287     4.655    0.22E-03    0.25E-04    0.22E-06
 Optimization of the real space projectors (new method)

 maximal supplied QI-value         = 25.13
 optimisation between [QCUT,QGAM] = [ 11.31, 22.87] = [ 35.82,146.48] Ry 
 Optimized for a Real-space Cutoff    1.27 Angstroem

   l    n(q)    QCUT    max X(q) W(low)/X(q) W(high)/X(q)  e(spline) 
   0      9    11.310    79.467    0.75E-04    0.16E-03    0.36E-06
   0      9    11.310    66.151    0.74E-04    0.16E-03    0.36E-06
   1      8    11.310    17.416    0.35E-03    0.12E-03    0.95E-06
   1      8    11.310    12.382    0.37E-03    0.13E-03    0.98E-06
  PAW_PBE C 08Apr2002                   :
 energy of atom  1       EATOM= -147.1560
 kinetic energy error for atom=    0.0076 (will be added to EATOM!!)
  PAW_PBE F 08Apr2002                   :
 energy of atom  2       EATOM= -659.6475
 kinetic energy error for atom=    0.0354 (will be added to EATOM!!)
  PAW_PBE H 15Jun2001                   :
 energy of atom  3       EATOM=  -12.4884
 kinetic energy error for atom=    0.0020 (will be added to EATOM!!)
  PAW_PBE N 08Apr2002                   :
 energy of atom  4       EATOM= -264.5486
 kinetic energy error for atom=    0.0138 (will be added to EATOM!!)
 
 
 POSCAR: Generated POSCAR
  positions in cartesian coordinates
  No initial velocities read in
 exchange correlation table for  LEXCH =        8
   RHO(1)=    0.500       N(1)  =     2000
   RHO(2)=  100.500       N(2)  =     4000

 VTST: version 4.1, (05/19/21)

 CHAIN: initializing optimizer
 
 OPT: Using VASP Conjugate-Gradient optimizer
 CHAIN: Read ICHAIN            0
 
 POSCAR: Generated POSCAR
  positions in cartesian coordinates
  No initial velocities read in
 


--------------------------------------------------------------------------------------------------------


 ion  position               nearest neighbor table
   1  0.508  0.709  0.551-   7 1.09   9 1.09   8 1.09   2 1.50
   2  0.503  0.581  0.548-  15 1.35   3 1.38   1 1.50
   3  0.516  0.520  0.443-   6 1.35   2 1.38   4 1.40
   4  0.512  0.401  0.446-  14 1.34  13 1.36   3 1.40
   5  0.483  0.413  0.647-  12 1.09  15 1.33  14 1.34
   6  0.535  0.572  0.336-   3 1.35
   7  0.525  0.745  0.461-   1 1.09
   8  0.387  0.741  0.589-   1 1.09
   9  0.613  0.738  0.609-   1 1.09
  10  0.563  0.377  0.268-  13 1.01
  11  0.543  0.255  0.352-  13 1.01
  12  0.469  0.368  0.732-   5 1.09
  13  0.519  0.339  0.343-  10 1.01  11 1.01   4 1.36
  14  0.495  0.347  0.550-   5 1.34   4 1.34
  15  0.485  0.525  0.653-   5 1.33   2 1.35
 

IMPORTANT INFORMATION: All symmetrisations will be switched off!
NOSYMM: (Re-)initialisation of all symmetry stuff for point group C_1.


----------------------------------------------------------------------------------------

                                     Primitive cell                                     

  volume of cell :    1018.0158

  direct lattice vectors                    reciprocal lattice vectors
     7.745500000  0.000000000  0.000000000     0.129107224  0.000000000  0.000000000
     0.000000000 11.756100000  0.000000000     0.000000000  0.085062223  0.000000000
     0.000000000  0.000000000 11.180000000     0.000000000  0.000000000  0.089445438

  length of vectors
     7.745500000 11.756100000 11.180000000     0.129107224  0.085062223  0.089445438

  position of ions in fractional coordinates (direct lattice)
     0.507559228  0.708832011  0.550581395
     0.503117939  0.581170626  0.547808587
     0.516351430  0.520427693  0.442924866
     0.511626105  0.401025850  0.445697674
     0.482718998  0.412721906  0.647066190
     0.535097799  0.571907350  0.335939177
     0.524911239  0.744813331  0.461475850
     0.387321671  0.741385323  0.588944544
     0.612678329  0.737591548  0.608559928
     0.562997870  0.377182909  0.268336315
     0.542663482  0.255186669  0.352441860
     0.469046543  0.367928139  0.731663685
     0.519256342  0.338955946  0.342889088
     0.495229488  0.346900758  0.550116279
     0.485404428  0.525344289  0.652701252

  ion indices of the primitive-cell ions
   primitive index   ion index
                 1           1
                 2           2
                 3           3
                 4           4
                 5           5
                 6           6
                 7           7
                 8           8
                 9           9
                10          10
                11          11
                12          12
                13          13
                14          14
                15          15

----------------------------------------------------------------------------------------

 
 
 KPOINTS: K-Spacing Value to Generate K-Mesh: 0.00

Automatic generation of k-mesh.
 Grid dimensions read from file:
 generate k-points for:    1    1    1

 Generating k-lattice:

  Cartesian coordinates                     Fractional coordinates (reciprocal lattice)
     0.129107224  0.000000000  0.000000000     1.000000000  0.000000000  0.000000000
     0.000000000  0.085062223  0.000000000     0.000000000  1.000000000  0.000000000
     0.000000000  0.000000000  0.089445438     0.000000000  0.000000000  1.000000000

  Length of vectors
     0.129107224  0.085062223  0.089445438

  Shift w.r.t. Gamma in fractional coordinates (k-lattice)
     0.000000000  0.000000000  0.000000000

 
 Subroutine IBZKPT returns following result:
 ===========================================
 
 Found      1 irreducible k-points:
 
 Following reciprocal coordinates:
            Coordinates               Weight
  0.000000  0.000000  0.000000      1.000000
 
 Following cartesian coordinates:
            Coordinates               Weight
  0.000000  0.000000  0.000000      1.000000
 


--------------------------------------------------------------------------------------------------------




 Dimension of arrays:
   k-points           NKPTS =      1   k-points in BZ     NKDIM =      1   number of bands    NBANDS=     32
   number of dos      NEDOS =    301   number of ions     NIONS =     15
   non local maximal  LDIM  =      4   non local SUM 2l+1 LMDIM =      8
   total plane-waves  NPLWV = 172032
   max r-space proj   IRMAX =   1506   max aug-charges    IRDMAX=   2348
   dimension x,y,z NGX =    42 NGY =   64 NGZ =   64
   dimension x,y,z NGXF=    84 NGYF=  128 NGZF=  128
   support grid    NGXF=    84 NGYF=  128 NGZF=  128
   ions per type =               5   1   6   3
   NGX,Y,Z   is equivalent  to a cutoff of   9.01,  9.05,  9.52 a.u.
   NGXF,Y,Z  is equivalent  to a cutoff of  18.03, 18.10, 19.03 a.u.

 SYSTEM =  QM9                                     
 POSCAR =  Generated POSCAR                        

 Startparameter for this run:
   NWRITE =      2    write-flag & timer
   PREC   = normal    normal or accurate (medium, high low for compatibility)
   ISTART =      0    job   : 0-new  1-cont  2-samecut
   ICHARG =      2    charge: 1-file 2-atom 10-const
   ISPIN  =      1    spin polarized calculation?
   LNONCOLLINEAR =      F non collinear calculations
   LSORBIT =      F    spin-orbit coupling
   INIWAV =      1    electr: 0-lowe 1-rand  2-diag
   LASPH  =      F    aspherical Exc in radial PAW
 Electronic Relaxation 1
   ENCUT  =  500.0 eV  36.75 Ry    6.06 a.u.  14.12 21.43 20.38*2*pi/ulx,y,z
   ENINI  =  500.0     initial cutoff
   ENAUG  =  644.9 eV  augmentation charge cutoff
   NELM   =    150;   NELMIN=  6; NELMDL=-20     # of ELM steps 
   EDIFF  = 0.1E-04   stopping-criterion for ELM
   LREAL  =      T    real-space projection
   NLSPLINE    = F    spline interpolate recip. space projectors
   LCOMPAT=      F    compatible to vasp.4.4
   GGA_COMPAT  = T    GGA compatible to vasp.4.4-vasp.4.6
   LMAXPAW     = -100 max onsite density
   LMAXMIX     =    2 max onsite mixed and CHGCAR
   VOSKOWN=      0    Vosko Wilk Nusair interpolation
   ROPT   =   -0.00050  -0.00050  -0.00050  -0.00050
 Ionic relaxation
   EDIFFG = -.2E-01   stopping-criterion for IOM
   NSW    =     10    number of steps for IOM
   NBLOCK =      1;   KBLOCK =     10    inner block; outer block 
   IBRION =      2    ionic relax: 0-MD 1-quasi-New 2-CG
   NFREE  =      1    steps in history (QN), initial steepest desc. (CG)
   ISIF   =      2    stress and relaxation
   IWAVPR =     11    prediction:  0-non 1-charg 2-wave 3-comb
   ISYM   =      0    0-nonsym 1-usesym 2-fastsym
   LCORR  =      T    Harris-Foulkes like correction to forces

   POTIM  = 0.2000    time-step for ionic-motion
   TEIN   =    0.0    initial temperature
   TEBEG  =    0.0;   TEEND  =   0.0 temperature during run
   SMASS  =  -3.00    Nose mass-parameter (am)
   estimated Nose-frequenzy (Omega)   =  0.10E-29 period in steps = 0.31E+47 mass=  -0.137E-26a.u.
   SCALEE = 1.0000    scale energy and forces
   NPACO  =    256;   APACO  = 10.0  distance and # of slots for P.C.
   PSTRESS=    0.0 pullay stress

  Mass of Ions in am
   POMASS =  12.01 19.00  1.00 14.00
  Ionic Valenz
   ZVAL   =   4.00  7.00  1.00  5.00
  Atomic Wigner-Seitz radii
   RWIGS  =  -1.00 -1.00 -1.00 -1.00
  virtual crystal weights 
   VCA    =   1.00  1.00  1.00  1.00
   NELECT =      48.0000    total number of electrons
   NUPDOWN=      -1.0000    fix difference up-down

 DOS related values:
   EMIN   =  10.00;   EMAX   =-10.00  energy-range for DOS
   EFERMI =   0.00;   METHOD = LEGACY      
   ISMEAR =     0;   SIGMA  =   0.10  broadening in eV -4-tet -1-fermi 0-gaus

 Electronic relaxation 2 (details)
   IALGO  =     48    algorithm
   LDIAG  =      T    sub-space diagonalisation (order eigenvalues)
   LSUBROT=      F    optimize rotation matrix (better conditioning)
   TURBO    =      0    0=normal 1=particle mesh
   IRESTART =      0    0=no restart 2=restart with 2 vectors
   NREBOOT  =      0    no. of reboots
   NMIN     =      0    reboot dimension
   EREF     =   0.00    reference energy to select bands
   IMIX   =      4    mixing-type and parameters
     AMIX     =   0.40;   BMIX     =  1.00
     AMIX_MAG =   1.60;   BMIX_MAG =  1.00
     AMIN     =   0.10
     WC   =   100.;   INIMIX=   1;  MIXPRE=   1;  MAXMIX= -45

 Intra band minimization:
   WEIMIN = 0.0010     energy-eigenvalue tresh-hold
   EBREAK =  0.78E-07  absolut break condition
   DEPER  =   0.30     relativ break condition  

   TIME   =   0.40     timestep for ELM

  volume/ion in A,a.u.               =      67.87       457.99
  Fermi-wavevector in a.u.,A,eV,Ry     =   0.591431  1.117642  4.759183  0.349790
  Thomas-Fermi vector in A             =   1.639856
 
 Write flags
   LWAVE        =      F    write WAVECAR
   LDOWNSAMPLE  =      F    k-point downsampling of WAVECAR
   LCHARG       =      F    write CHGCAR
   LVTOT        =      F    write LOCPOT, total local potential
   LVHAR        =      F    write LOCPOT, Hartree potential only
   LELF         =      F    write electronic localiz. function (ELF)
   LORBIT       =     11    0 simple, 1 ext, 2 COOP (PROOUT), +10 PAW based schemes


 Dipole corrections
   LMONO  =      F    monopole corrections only (constant potential shift)
   LDIPOL =      F    correct potential (dipole corrections)
   IDIPOL =      0    1-x, 2-y, 3-z, 4-all directions 
   EPSILON=  1.0000000 bulk dielectric constant

 Exchange correlation treatment:
   GGA     =    --    GGA type
   LEXCH   =     8    internal setting for exchange type
   LIBXC   =     F    Libxc                    
   VOSKOWN =     0    Vosko Wilk Nusair interpolation
   LHFCALC =     F    Hartree Fock is set to
   LHFONE  =     F    Hartree Fock one center treatment
   AEXX    =    0.0000 exact exchange contribution

 Linear response parameters
   LEPSILON=     F    determine dielectric tensor
   LRPA    =     F    only Hartree local field effects (RPA)
   LNABLA  =     F    use nabla operator in PAW spheres
   LVEL    =     F    velocity operator in full k-point grid
   CSHIFT  =0.1000    complex shift for real part using Kramers Kronig
   OMEGAMAX=  -1.0    maximum frequency
   DEG_THRESHOLD= 0.2000000E-02 threshold for treating states as degnerate
   RTIME   =   -0.100 relaxation time in fs
  (WPLASMAI=    0.000 imaginary part of plasma frequency in eV, 0.658/RTIME)
   DFIELD  = 0.0000000 0.0000000 0.0000000 field for delta impulse in time
 
  Optional k-point grid parameters
   LKPOINTS_OPT  =     F    use optional k-point grid
   KPOINTS_OPT_MODE=     1    mode for optional k-point grid
 
 Orbital magnetization related:
   ORBITALMAG=     F  switch on orbital magnetization
   LCHIMAG   =     F  perturbation theory with respect to B field
   DQ        =  0.001000  dq finite difference perturbation B field
   LLRAUG    =     F  two centre corrections for induced B field
   LBONE     =     F  B-component reconstruction in AE one-centre
   LVGVCALC  =     T  calculate vGv susceptibility
   LVGVAPPL  =     F  apply vGv susceptibility instead of pGv for G=0

 Random number generation:
   RANDOM_GENERATOR = DEFAULT
   PCG_SEED         = not used


--------------------------------------------------------------------------------------------------------


 conjugate gradient relaxation of ions
 charge density and potential will be updated during run
 non-spin polarized calculation
 RMM-DIIS sequential band-by-band
 perform sub-space diagonalisation
    before iterative eigenvector-optimisation
 modified Broyden-mixing scheme, WC =      100.0
 initial mixing is a Kerker type mixing with AMIX =  0.4000 and BMIX =      1.0000
 Hartree-type preconditioning will be used
 using additional bands            8
 real space projection scheme for non local part
 use partial core corrections
 calculate Harris-corrections to forces 
   (improved forces if not selfconsistent)
 use gradient corrections 
 use of overlap-Matrix (Vanderbilt PP)
 Gauss-broadening in eV      SIGMA  =   0.10


--------------------------------------------------------------------------------------------------------


  energy-cutoff  :      500.00
  volume of cell :     1018.02
      direct lattice vectors                 reciprocal lattice vectors
     7.745500000  0.000000000  0.000000000     0.129107224  0.000000000  0.000000000
     0.000000000 11.756100000  0.000000000     0.000000000  0.085062223  0.000000000
     0.000000000  0.000000000 11.180000000     0.000000000  0.000000000  0.089445438

  length of vectors
     7.745500000 11.756100000 11.180000000     0.129107224  0.085062223  0.089445438


 
 k-points in units of 2pi/SCALE and weight: K-Spacing Value to Generate K-Mesh: 0.00
   0.00000000  0.00000000  0.00000000       1.000
 
 k-points in reciprocal lattice and weights: K-Spacing Value to Generate K-Mesh: 0.00
   0.00000000  0.00000000  0.00000000       1.000
 
 position of ions in fractional coordinates (direct lattice) 
   0.50755923  0.70883201  0.55058140
   0.50311794  0.58117063  0.54780859
   0.51635143  0.52042769  0.44292487
   0.51162611  0.40102585  0.44569767
   0.48271900  0.41272191  0.64706619
   0.53509780  0.57190735  0.33593918
   0.52491124  0.74481333  0.46147585
   0.38732167  0.74138532  0.58894454
   0.61267833  0.73759155  0.60855993
   0.56299787  0.37718291  0.26833631
   0.54266348  0.25518667  0.35244186
   0.46904654  0.36792814  0.73166369
   0.51925634  0.33895595  0.34288909
   0.49522949  0.34690076  0.55011628
   0.48540443  0.52534429  0.65270125
 
 position of ions in cartesian coordinates  (Angst):
   3.93130000  8.33310000  6.15550000
   3.89690000  6.83230000  6.12450000
   3.99940000  6.11820000  4.95190000
   3.96280000  4.71450000  4.98290000
   3.73890000  4.85200000  7.23420000
   4.14460000  6.72340000  3.75580000
   4.06570000  8.75610000  5.15930000
   3.00000000  8.71580000  6.58440000
   4.74550000  8.67120000  6.80370000
   4.36070000  4.43420000  3.00000000
   4.20320000  3.00000000  3.94030000
   3.63300000  4.32540000  8.18000000
   4.02190000  3.98480000  3.83350000
   3.83580000  4.07820000  6.15030000
   3.75970000  6.17600000  7.29720000
 


--------------------------------------------------------------------------------------------------------


 use parallel FFT for orbitals z direction half grid
 k-point   1 :   0.0000 0.0000 0.0000  plane waves:   12908

 maximum and minimum number of plane-waves per node :      6458     6450

 maximum number of plane-waves:     12908
 maximum index in each direction: 
   IXMAX=   14   IYMAX=   21   IZMAX=   20
   IXMIN=  -14   IYMIN=  -21   IZMIN=    0


 real space projection operators:
  total allocation   :        777.45 KBytes
  max/ min on nodes  :        389.58        387.88


 parallel 3D FFT for wavefunctions:
    minimum data exchange during FFTs selected (reduces bandwidth)
 parallel 3D FFT for charge:
    minimum data exchange during FFTs selected (reduces bandwidth)


 total amount of memory used by VASP MPI-rank0    55860. kBytes
=======================================================================

   base      :      30000. kBytes
   nonlr-proj:        476. kBytes
   fftplans  :       7947. kBytes
   grid      :      16595. kBytes
   one-center:         12. kBytes
   wavefun   :        830. kBytes
 
     INWAV:  cpu time      0.0000: real time      0.0000
 Broyden mixing: mesh for mixing (old mesh)
   NGX = 29   NGY = 43   NGZ = 41
  (NGX  = 84   NGY  =128   NGZ  =128)
  gives a total of  51127 points

 initial charge density was supplied:
 charge density of overlapping atoms calculated
 number of electron      48.0000000 magnetization 
 keeping initial charge density in first step


--------------------------------------------------------------------------------------------------------


 Maximum index for non-local projection operator          711
 Maximum index for augmentation-charges          290 (set IRDMAX)


--------------------------------------------------------------------------------------------------------


 First call to EWALD:  gamma=   0.176
 Maximum number of real-space cells 3x 2x 3
 Maximum number of reciprocal cells 2x 3x 3

    FEWALD:  cpu time      0.0013: real time      0.0013


--------------------------------------- Ionic step        1  -------------------------------------------




--------------------------------------- Iteration      1(   1)  ---------------------------------------


    POTLOK:  cpu time      0.1220: real time      0.1726
    SETDIJ:  cpu time      0.0032: real time      0.0130
    EDDIAG:  cpu time      0.1345: real time      0.3808
  RMM-DIIS:  cpu time      0.0891: real time      0.0903
    ORTHCH:  cpu time      0.0021: real time      0.0021
       DOS:  cpu time      0.0006: real time      0.0034
    --------------------------------------------
      LOOP:  cpu time      0.3516: real time      0.6623

 eigenvalue-minimisations  :    32
 total energy-change (2. order) : 0.8702712E+03  (-0.1164377E+04)
 number of electron      48.0000000 magnetization 
 augmentation part       48.0000000 magnetization 

 Free energy of the ion-electron system (eV)
  ---------------------------------------------------
  alpha Z        PSCENC =         9.76196320
  Ewald energy   TEWEN  =      1955.56090120
  -Hartree energ DENC   =     -3684.16808813
  -exchange      EXHF   =         0.00000000
  -V(xc)+E(xc)   XCENC  =       176.03635320
  PAW double counting   =      1709.42040191    -1720.99522934
  entropy T*S    EENTRO =        -0.00097585
  eigenvalues    EBANDS =       160.77856830
  atomic energy  EATOM  =      2263.87730879
  Solvation  Ediel_sol  =         0.00000000
  ---------------------------------------------------
  free energy    TOTEN  =       870.27120327 eV

  energy without entropy =      870.27217912  energy(sigma->0) =      870.27169119


--------------------------------------------------------------------------------------------------------




--------------------------------------- Iteration      1(   2)  ---------------------------------------


    EDDIAG:  cpu time      0.0279: real time      0.0516
  RMM-DIIS:  cpu time      0.0792: real time      0.0810
    ORTHCH:  cpu time      0.0023: real time      0.0023
       DOS:  cpu time      0.0001: real time      0.0001
    --------------------------------------------
      LOOP:  cpu time      0.1095: real time      0.1351

 eigenvalue-minimisations  :    32
 total energy-change (2. order) :-0.4177611E+03  (-0.4687195E+03)
 number of electron      48.0000000 magnetization 
 augmentation part       48.0000000 magnetization 

 Free energy of the ion-electron system (eV)
  ---------------------------------------------------
  alpha Z        PSCENC =         9.76196320
  Ewald energy   TEWEN  =      1955.56090120
  -Hartree energ DENC   =     -3684.16808813
  -exchange      EXHF   =         0.00000000
  -V(xc)+E(xc)   XCENC  =       176.03635320
  PAW double counting   =      1709.42040191    -1720.99522934
  entropy T*S    EENTRO =        -0.00000060
  eigenvalues    EBANDS =      -256.98348545
  atomic energy  EATOM  =      2263.87730879
  Solvation  Ediel_sol  =         0.00000000
  ---------------------------------------------------
  free energy    TOTEN  =       452.51012476 eV

  energy without entropy =      452.51012537  energy(sigma->0) =      452.51012507


--------------------------------------------------------------------------------------------------------




--------------------------------------- Iteration      1(   3)  ---------------------------------------


    EDDIAG:  cpu time      0.0253: real time      0.0257
  RMM-DIIS:  cpu time      0.0793: real time      0.0800
    ORTHCH:  cpu time      0.0021: real time      0.0021
       DOS:  cpu time      0.0002: real time      0.0002
    --------------------------------------------
      LOOP:  cpu time      0.1069: real time      0.1080

 eigenvalue-minimisations  :    32
 total energy-change (2. order) :-0.1861416E+03  (-0.2898386E+03)
 number of electron      48.0000000 magnetization 
 augmentation part       48.0000000 magnetization 

 Free energy of the ion-electron system (eV)
  ---------------------------------------------------
  alpha Z        PSCENC =         9.76196320
  Ewald energy   TEWEN  =      1955.56090120
  -Hartree energ DENC   =     -3684.16808813
  -exchange      EXHF   =         0.00000000
  -V(xc)+E(xc)   XCENC  =       176.03635320
  PAW double counting   =      1709.42040191    -1720.99522934
  entropy T*S    EENTRO =        -0.11308958
  eigenvalues    EBANDS =      -443.01204606
  atomic energy  EATOM  =      2263.87730879
  Solvation  Ediel_sol  =         0.00000000
  ---------------------------------------------------
  free energy    TOTEN  =       266.36847518 eV

  energy without entropy =      266.48156476  energy(sigma->0) =      266.42501997


--------------------------------------------------------------------------------------------------------




--------------------------------------- Iteration      1(   4)  ---------------------------------------


    EDDIAG:  cpu time      0.0265: real time      0.0269
  RMM-DIIS:  cpu time      0.0794: real time      0.0802
    ORTHCH:  cpu time      0.0022: real time      0.0023
       DOS:  cpu time      0.0002: real time      0.0002
    --------------------------------------------
      LOOP:  cpu time      0.1083: real time      0.1094

 eigenvalue-minimisations  :    32
 total energy-change (2. order) :-0.1613307E+03  (-0.1958351E+03)
 number of electron      48.0000000 magnetization 
 augmentation part       48.0000000 magnetization 

 Free energy of the ion-electron system (eV)
  ---------------------------------------------------
  alpha Z        PSCENC =         9.76196320
  Ewald energy   TEWEN  =      1955.56090120
  -Hartree energ DENC   =     -3684.16808813
  -exchange      EXHF   =         0.00000000
  -V(xc)+E(xc)   XCENC  =       176.03635320
  PAW double counting   =      1709.42040191    -1720.99522934
  entropy T*S    EENTRO =        -0.00123642
  eigenvalues    EBANDS =      -604.45462892
  atomic energy  EATOM  =      2263.87730879
  Solvation  Ediel_sol  =         0.00000000
  ---------------------------------------------------
  free energy    TOTEN  =       105.03774548 eV

  energy without entropy =      105.03898190  energy(sigma->0) =      105.03836369


--------------------------------------------------------------------------------------------------------




--------------------------------------- Iteration      1(   5)  ---------------------------------------


    EDDIAG:  cpu time      0.0248: real time      0.0253
  RMM-DIIS:  cpu time      0.0791: real time      0.0798
    ORTHCH:  cpu time      0.0021: real time      0.0021
       DOS:  cpu time      0.0002: real time      0.0002
    --------------------------------------------
      LOOP:  cpu time      0.1061: real time      0.1074

 eigenvalue-minimisations  :    32
 total energy-change (2. order) :-0.1012243E+03  (-0.9671243E+02)
 number of electron      48.0000000 magnetization 
 augmentation part       48.0000000 magnetization 

 Free energy of the ion-electron system (eV)
  ---------------------------------------------------
  alpha Z        PSCENC =         9.76196320
  Ewald energy   TEWEN  =      1955.56090120
  -Hartree energ DENC   =     -3684.16808813
  -exchange      EXHF   =         0.00000000
  -V(xc)+E(xc)   XCENC  =       176.03635320
  PAW double counting   =      1709.42040191    -1720.99522934
  entropy T*S    EENTRO =        -0.09228700
  eigenvalues    EBANDS =      -705.58785224
  atomic energy  EATOM  =      2263.87730879
  Solvation  Ediel_sol  =         0.00000000
  ---------------------------------------------------
  free energy    TOTEN  =         3.81347157 eV

  energy without entropy =        3.90575858  energy(sigma->0) =        3.85961508


--------------------------------------------------------------------------------------------------------




--------------------------------------- Iteration      1(   6)  ---------------------------------------


    EDDIAG:  cpu time      0.0252: real time      0.0255
  RMM-DIIS:  cpu time      0.0791: real time      0.0798
    ORTHCH:  cpu time      0.0023: real time      0.0136
       DOS:  cpu time      0.0002: real time      0.0002
    --------------------------------------------
      LOOP:  cpu time      0.1067: real time      0.1191

 eigenvalue-minimisations  :    32
 total energy-change (2. order) :-0.6439965E+02  (-0.5973937E+02)
 number of electron      48.0000000 magnetization 
 augmentation part       48.0000000 magnetization 

 Free energy of the ion-electron system (eV)
  ---------------------------------------------------
  alpha Z        PSCENC =         9.76196320
  Ewald energy   TEWEN  =      1955.56090120
  -Hartree energ DENC   =     -3684.16808813
  -exchange      EXHF   =         0.00000000
  -V(xc)+E(xc)   XCENC  =       176.03635320
  PAW double counting   =      1709.42040191    -1720.99522934
  entropy T*S    EENTRO =        -0.04907209
  eigenvalues    EBANDS =      -770.03071373
  atomic energy  EATOM  =      2263.87730879
  Solvation  Ediel_sol  =         0.00000000
  ---------------------------------------------------
  free energy    TOTEN  =       -60.58617500 eV

  energy without entropy =      -60.53710291  energy(sigma->0) =      -60.56163896


--------------------------------------------------------------------------------------------------------




--------------------------------------- Iteration      1(   7)  ---------------------------------------


    EDDIAG:  cpu time      0.0259: real time      0.0264
  RMM-DIIS:  cpu time      0.0791: real time      0.0799
    ORTHCH:  cpu time      0.0021: real time      0.0021
       DOS:  cpu time      0.0001: real time      0.0001
    --------------------------------------------
      LOOP:  cpu time      0.1073: real time      0.1085

 eigenvalue-minimisations  :    32
 total energy-change (2. order) :-0.2998402E+02  (-0.2370105E+02)
 number of electron      48.0000000 magnetization 
 augmentation part       48.0000000 magnetization 

 Free energy of the ion-electron system (eV)
  ---------------------------------------------------
  alpha Z        PSCENC =         9.76196320
  Ewald energy   TEWEN  =      1955.56090120
  -Hartree energ DENC   =     -3684.16808813
  -exchange      EXHF   =         0.00000000
  -V(xc)+E(xc)   XCENC  =       176.03635320
  PAW double counting   =      1709.42040191    -1720.99522934
  entropy T*S    EENTRO =        -0.00000000
  eigenvalues    EBANDS =      -800.06380224
  atomic energy  EATOM  =      2263.87730879
  Solvation  Ediel_sol  =         0.00000000
  ---------------------------------------------------
  free energy    TOTEN  =       -90.57019143 eV

  energy without entropy =      -90.57019143  energy(sigma->0) =      -90.57019143


--------------------------------------------------------------------------------------------------------




--------------------------------------- Iteration      1(   8)  ---------------------------------------


    EDDIAG:  cpu time      0.0249: real time      0.0254
  RMM-DIIS:  cpu time      0.0783: real time      0.0790
    ORTHCH:  cpu time      0.0022: real time      0.0022
       DOS:  cpu time      0.0001: real time      0.0001
    --------------------------------------------
      LOOP:  cpu time      0.1055: real time      0.1068

 eigenvalue-minimisations  :    32
 total energy-change (2. order) :-0.1058364E+02  (-0.9273448E+01)
 number of electron      48.0000000 magnetization 
 augmentation part       48.0000000 magnetization 

 Free energy of the ion-electron system (eV)
  ---------------------------------------------------
  alpha Z        PSCENC =         9.76196320
  Ewald energy   TEWEN  =      1955.56090120
  -Hartree energ DENC   =     -3684.16808813
  -exchange      EXHF   =         0.00000000
  -V(xc)+E(xc)   XCENC  =       176.03635320
  PAW double counting   =      1709.42040191    -1720.99522934
  entropy T*S    EENTRO =        -0.00000000
  eigenvalues    EBANDS =      -810.64743728
  atomic energy  EATOM  =      2263.87730879
  Solvation  Ediel_sol  =         0.00000000
  ---------------------------------------------------
  free energy    TOTEN  =      -101.15382646 eV

  energy without entropy =     -101.15382646  energy(sigma->0) =     -101.15382646


--------------------------------------------------------------------------------------------------------




--------------------------------------- Iteration      1(   9)  ---------------------------------------


    EDDIAG:  cpu time      0.0253: real time      0.0258
  RMM-DIIS:  cpu time      0.0781: real time      0.0788
    ORTHCH:  cpu time      0.0023: real time      0.0024
       DOS:  cpu time      0.0001: real time      0.0001
    --------------------------------------------
      LOOP:  cpu time      0.1059: real time      0.1071

 eigenvalue-minimisations  :    32
 total energy-change (2. order) :-0.2443910E+01  (-0.2304352E+01)
 number of electron      48.0000000 magnetization 
 augmentation part       48.0000000 magnetization 

 Free energy of the ion-electron system (eV)
  ---------------------------------------------------
  alpha Z        PSCENC =         9.76196320
  Ewald energy   TEWEN  =      1955.56090120
  -Hartree energ DENC   =     -3684.16808813
  -exchange      EXHF   =         0.00000000
  -V(xc)+E(xc)   XCENC  =       176.03635320
  PAW double counting   =      1709.42040191    -1720.99522934
  entropy T*S    EENTRO =        -0.00000000
  eigenvalues    EBANDS =      -813.09134745
  atomic energy  EATOM  =      2263.87730879
  Solvation  Ediel_sol  =         0.00000000
  ---------------------------------------------------
  free energy    TOTEN  =      -103.59773663 eV

  energy without entropy =     -103.59773663  energy(sigma->0) =     -103.59773663


--------------------------------------------------------------------------------------------------------




--------------------------------------- Iteration      1(  10)  ---------------------------------------


    EDDIAG:  cpu time      0.0253: real time      0.0258
  RMM-DIIS:  cpu time      0.0790: real time      0.0797
    ORTHCH:  cpu time      0.0021: real time      0.0021
       DOS:  cpu time      0.0001: real time      0.0001
    --------------------------------------------
      LOOP:  cpu time      0.1065: real time      0.1078

 eigenvalue-minimisations  :    32
 total energy-change (2. order) :-0.8599931E+00  (-0.7381515E+00)
 number of electron      48.0000000 magnetization 
 augmentation part       48.0000000 magnetization 

 Free energy of the ion-electron system (eV)
  ---------------------------------------------------
  alpha Z        PSCENC =         9.76196320
  Ewald energy   TEWEN  =      1955.56090120
  -Hartree energ DENC   =     -3684.16808813
  -exchange      EXHF   =         0.00000000
  -V(xc)+E(xc)   XCENC  =       176.03635320
  PAW double counting   =      1709.42040191    -1720.99522934
  entropy T*S    EENTRO =        -0.00000000
  eigenvalues    EBANDS =      -813.95134056
  atomic energy  EATOM  =      2263.87730879
  Solvation  Ediel_sol  =         0.00000000
  ---------------------------------------------------
  free energy    TOTEN  =      -104.45772974 eV

  energy without entropy =     -104.45772974  energy(sigma->0) =     -104.45772974


--------------------------------------------------------------------------------------------------------




--------------------------------------- Iteration      1(  11)  ---------------------------------------


    EDDIAG:  cpu time      0.0256: real time      0.0261
  RMM-DIIS:  cpu time      0.0841: real time      0.0849
    ORTHCH:  cpu time      0.0023: real time      0.0023
       DOS:  cpu time      0.0001: real time      0.0001
    --------------------------------------------
      LOOP:  cpu time      0.1122: real time      0.1134

 eigenvalue-minimisations  :    32
 total energy-change (2. order) :-0.2629908E+00  (-0.2478812E+00)
 number of electron      48.0000000 magnetization 
 augmentation part       48.0000000 magnetization 

 Free energy of the ion-electron system (eV)
  ---------------------------------------------------
  alpha Z        PSCENC =         9.76196320
  Ewald energy   TEWEN  =      1955.56090120
  -Hartree energ DENC   =     -3684.16808813
  -exchange      EXHF   =         0.00000000
  -V(xc)+E(xc)   XCENC  =       176.03635320
  PAW double counting   =      1709.42040191    -1720.99522934
  entropy T*S    EENTRO =        -0.00000000
  eigenvalues    EBANDS =      -814.21433131
  atomic energy  EATOM  =      2263.87730879
  Solvation  Ediel_sol  =         0.00000000
  ---------------------------------------------------
  free energy    TOTEN  =      -104.72072049 eV

  energy without entropy =     -104.72072049  energy(sigma->0) =     -104.72072049


--------------------------------------------------------------------------------------------------------




--------------------------------------- Iteration      1(  12)  ---------------------------------------


    EDDIAG:  cpu time      0.0253: real time      0.0258
  RMM-DIIS:  cpu time      0.0793: real time      0.0801
    ORTHCH:  cpu time      0.0023: real time      0.0023
       DOS:  cpu time      0.0001: real time      0.0001
    --------------------------------------------
      LOOP:  cpu time      0.1070: real time      0.1084

 eigenvalue-minimisations  :    32
 total energy-change (2. order) :-0.9840497E-01  (-0.9290204E-01)
 number of electron      48.0000000 magnetization 
 augmentation part       48.0000000 magnetization 

 Free energy of the ion-electron system (eV)
  ---------------------------------------------------
  alpha Z        PSCENC =         9.76196320
  Ewald energy   TEWEN  =      1955.56090120
  -Hartree energ DENC   =     -3684.16808813
  -exchange      EXHF   =         0.00000000
  -V(xc)+E(xc)   XCENC  =       176.03635320
  PAW double counting   =      1709.42040191    -1720.99522934
  entropy T*S    EENTRO =        -0.00000000
  eigenvalues    EBANDS =      -814.31273628
  atomic energy  EATOM  =      2263.87730879
  Solvation  Ediel_sol  =         0.00000000
  ---------------------------------------------------
  free energy    TOTEN  =      -104.81912546 eV

  energy without entropy =     -104.81912546  energy(sigma->0) =     -104.81912546


--------------------------------------------------------------------------------------------------------




--------------------------------------- Iteration      1(  13)  ---------------------------------------


    EDDIAG:  cpu time      0.0255: real time      0.0258
  RMM-DIIS:  cpu time      0.0791: real time      0.0798
    ORTHCH:  cpu time      0.0023: real time      0.0023
       DOS:  cpu time      0.0001: real time      0.0001
    --------------------------------------------
      LOOP:  cpu time      0.1069: real time      0.1081

 eigenvalue-minimisations  :    32
 total energy-change (2. order) :-0.3719521E-01  (-0.3660724E-01)
 number of electron      48.0000000 magnetization 
 augmentation part       48.0000000 magnetization 

 Free energy of the ion-electron system (eV)
  ---------------------------------------------------
  alpha Z        PSCENC =         9.76196320
  Ewald energy   TEWEN  =      1955.56090120
  -Hartree energ DENC   =     -3684.16808813
  -exchange      EXHF   =         0.00000000
  -V(xc)+E(xc)   XCENC  =       176.03635320
  PAW double counting   =      1709.42040191    -1720.99522934
  entropy T*S    EENTRO =        -0.00000000
  eigenvalues    EBANDS =      -814.34993149
  atomic energy  EATOM  =      2263.87730879
  Solvation  Ediel_sol  =         0.00000000
  ---------------------------------------------------
  free energy    TOTEN  =      -104.85632067 eV

  energy without entropy =     -104.85632067  energy(sigma->0) =     -104.85632067


--------------------------------------------------------------------------------------------------------




--------------------------------------- Iteration      1(  14)  ---------------------------------------


    EDDIAG:  cpu time      0.0264: real time      0.0268
  RMM-DIIS:  cpu time      0.0793: real time      0.0801
    ORTHCH:  cpu time      0.0021: real time      0.0021
       DOS:  cpu time      0.0001: real time      0.0001
    --------------------------------------------
      LOOP:  cpu time      0.1079: real time      0.1090

 eigenvalue-minimisations  :    32
 total energy-change (2. order) :-0.1549247E-01  (-0.1496817E-01)
 number of electron      48.0000000 magnetization 
 augmentation part       48.0000000 magnetization 

 Free energy of the ion-electron system (eV)
  ---------------------------------------------------
  alpha Z        PSCENC =         9.76196320
  Ewald energy   TEWEN  =      1955.56090120
  -Hartree energ DENC   =     -3684.16808813
  -exchange      EXHF   =         0.00000000
  -V(xc)+E(xc)   XCENC  =       176.03635320
  PAW double counting   =      1709.42040191    -1720.99522934
  entropy T*S    EENTRO =        -0.00000000
  eigenvalues    EBANDS =      -814.36542396
  atomic energy  EATOM  =      2263.87730879
  Solvation  Ediel_sol  =         0.00000000
  ---------------------------------------------------
  free energy    TOTEN  =      -104.87181314 eV

  energy without entropy =     -104.87181314  energy(sigma->0) =     -104.87181314


--------------------------------------------------------------------------------------------------------




--------------------------------------- Iteration      1(  15)  ---------------------------------------


    EDDIAG:  cpu time      0.0259: real time      0.0263
  RMM-DIIS:  cpu time      0.1462: real time      0.1621
    ORTHCH:  cpu time      0.0021: real time      0.0021
       DOS:  cpu time      0.0001: real time      0.0001
    --------------------------------------------
      LOOP:  cpu time      0.1744: real time      0.1906

 eigenvalue-minimisations  :    72
 total energy-change (2. order) :-0.1053249E-01  (-0.1049320E-01)
 number of electron      48.0000000 magnetization 
 augmentation part       48.0000000 magnetization 

 Free energy of the ion-electron system (eV)
  ---------------------------------------------------
  alpha Z        PSCENC =         9.76196320
  Ewald energy   TEWEN  =      1955.56090120
  -Hartree energ DENC   =     -3684.16808813
  -exchange      EXHF   =         0.00000000
  -V(xc)+E(xc)   XCENC  =       176.03635320
  PAW double counting   =      1709.42040191    -1720.99522934
  entropy T*S    EENTRO =        -0.00000000
  eigenvalues    EBANDS =      -814.37595644
  atomic energy  EATOM  =      2263.87730879
  Solvation  Ediel_sol  =         0.00000000
  ---------------------------------------------------
  free energy    TOTEN  =      -104.88234562 eV

  energy without entropy =     -104.88234562  energy(sigma->0) =     -104.88234562


--------------------------------------------------------------------------------------------------------




--------------------------------------- Iteration      1(  16)  ---------------------------------------


    EDDIAG:  cpu time      0.0269: real time      0.0274
  RMM-DIIS:  cpu time      0.1457: real time      0.1472
    ORTHCH:  cpu time      0.0024: real time      0.0024
       DOS:  cpu time      0.0001: real time      0.0001
    --------------------------------------------
      LOOP:  cpu time      0.1751: real time      0.1771

 eigenvalue-minimisations  :    72
 total energy-change (2. order) :-0.8368219E-03  (-0.8535969E-03)
 number of electron      48.0000000 magnetization 
 augmentation part       48.0000000 magnetization 

 Free energy of the ion-electron system (eV)
  ---------------------------------------------------
  alpha Z        PSCENC =         9.76196320
  Ewald energy   TEWEN  =      1955.56090120
  -Hartree energ DENC   =     -3684.16808813
  -exchange      EXHF   =         0.00000000
  -V(xc)+E(xc)   XCENC  =       176.03635320
  PAW double counting   =      1709.42040191    -1720.99522934
  entropy T*S    EENTRO =        -0.00000000
  eigenvalues    EBANDS =      -814.37679326
  atomic energy  EATOM  =      2263.87730879
  Solvation  Ediel_sol  =         0.00000000
  ---------------------------------------------------
  free energy    TOTEN  =      -104.88318244 eV

  energy without entropy =     -104.88318244  energy(sigma->0) =     -104.88318244


--------------------------------------------------------------------------------------------------------




--------------------------------------- Iteration      1(  17)  ---------------------------------------


    EDDIAG:  cpu time      0.0256: real time      0.0261
  RMM-DIIS:  cpu time      0.1454: real time      0.1466
    ORTHCH:  cpu time      0.0022: real time      0.0022
       DOS:  cpu time      0.0001: real time      0.0001
    --------------------------------------------
      LOOP:  cpu time      0.1733: real time      0.1750

 eigenvalue-minimisations  :    69
 total energy-change (2. order) :-0.7542443E-04  (-0.7473165E-04)
 number of electron      48.0000000 magnetization 
 augmentation part       48.0000000 magnetization 

 Free energy of the ion-electron system (eV)
  ---------------------------------------------------
  alpha Z        PSCENC =         9.76196320
  Ewald energy   TEWEN  =      1955.56090120
  -Hartree energ DENC   =     -3684.16808813
  -exchange      EXHF   =         0.00000000
  -V(xc)+E(xc)   XCENC  =       176.03635320
  PAW double counting   =      1709.42040191    -1720.99522934
  entropy T*S    EENTRO =        -0.00000000
  eigenvalues    EBANDS =      -814.37686869
  atomic energy  EATOM  =      2263.87730879
  Solvation  Ediel_sol  =         0.00000000
  ---------------------------------------------------
  free energy    TOTEN  =      -104.88325787 eV

  energy without entropy =     -104.88325787  energy(sigma->0) =     -104.88325787


--------------------------------------------------------------------------------------------------------




--------------------------------------- Iteration      1(  18)  ---------------------------------------


    EDDIAG:  cpu time      0.0251: real time      0.0256
  RMM-DIIS:  cpu time      0.1016: real time      0.1025
    ORTHCH:  cpu time      0.0022: real time      0.0022
       DOS:  cpu time      0.0001: real time      0.0002
    --------------------------------------------
      LOOP:  cpu time      0.1291: real time      0.1304

 eigenvalue-minimisations  :    47
 total energy-change (2. order) :-0.5561469E-05  (-0.5686084E-05)
 number of electron      48.0000000 magnetization 
 augmentation part       48.0000000 magnetization 

 Free energy of the ion-electron system (eV)
  ---------------------------------------------------
  alpha Z        PSCENC =         9.76196320
  Ewald energy   TEWEN  =      1955.56090120
  -Hartree energ DENC   =     -3684.16808813
  -exchange      EXHF   =         0.00000000
  -V(xc)+E(xc)   XCENC  =       176.03635320
  PAW double counting   =      1709.42040191    -1720.99522934
  entropy T*S    EENTRO =        -0.00000000
  eigenvalues    EBANDS =      -814.37687425
  atomic energy  EATOM  =      2263.87730879
  Solvation  Ediel_sol  =         0.00000000
  ---------------------------------------------------
  free energy    TOTEN  =      -104.88326343 eV

  energy without entropy =     -104.88326343  energy(sigma->0) =     -104.88326343


--------------------------------------------------------------------------------------------------------




--------------------------------------- Iteration      1(  19)  ---------------------------------------


    EDDIAG:  cpu time      0.0249: real time      0.0254
  RMM-DIIS:  cpu time      0.0925: real time      0.0934
    ORTHCH:  cpu time      0.0024: real time      0.0024
       DOS:  cpu time      0.0001: real time      0.0001
    --------------------------------------------
      LOOP:  cpu time      0.1200: real time      0.1214

 eigenvalue-minimisations  :    40
 total energy-change (2. order) :-0.1132446E-05  (-0.1128333E-05)
 number of electron      48.0000000 magnetization 
 augmentation part       48.0000000 magnetization 

 Free energy of the ion-electron system (eV)
  ---------------------------------------------------
  alpha Z        PSCENC =         9.76196320
  Ewald energy   TEWEN  =      1955.56090120
  -Hartree energ DENC   =     -3684.16808813
  -exchange      EXHF   =         0.00000000
  -V(xc)+E(xc)   XCENC  =       176.03635320
  PAW double counting   =      1709.42040191    -1720.99522934
  entropy T*S    EENTRO =        -0.00000000
  eigenvalues    EBANDS =      -814.37687538
  atomic energy  EATOM  =      2263.87730879
  Solvation  Ediel_sol  =         0.00000000
  ---------------------------------------------------
  free energy    TOTEN  =      -104.88326456 eV

  energy without entropy =     -104.88326456  energy(sigma->0) =     -104.88326456


--------------------------------------------------------------------------------------------------------




--------------------------------------- Iteration      1(  20)  ---------------------------------------


    EDDIAG:  cpu time      0.0248: real time      0.0253
  RMM-DIIS:  cpu time      0.0847: real time      0.0856
    ORTHCH:  cpu time      0.0023: real time      0.0023
       DOS:  cpu time      0.0001: real time      0.0001
    CHARGE:  cpu time      0.0167: real time      0.0168
    MIXING:  cpu time      0.0064: real time      0.0183
    --------------------------------------------
      LOOP:  cpu time      0.1351: real time      0.1485

 eigenvalue-minimisations  :    35
 total energy-change (2. order) :-0.2609831E-06  (-0.2592721E-06)
 number of electron      48.0000017 magnetization 
 augmentation part        2.8212345 magnetization 

 Broyden mixing:
  rms(total) = 0.17167E+01    rms(broyden)= 0.17158E+01
  rms(prec ) = 0.20863E+01
  weight for this iteration     100.00

 Free energy of the ion-electron system (eV)
  ---------------------------------------------------
  alpha Z        PSCENC =         9.76196320
  Ewald energy   TEWEN  =      1955.56090120
  -Hartree energ DENC   =     -3684.16808813
  -exchange      EXHF   =         0.00000000
  -V(xc)+E(xc)   XCENC  =       176.03635320
  PAW double counting   =      1709.42040191    -1720.99522934
  entropy T*S    EENTRO =        -0.00000000
  eigenvalues    EBANDS =      -814.37687564
  atomic energy  EATOM  =      2263.87730879
  Solvation  Ediel_sol  =         0.00000000
  ---------------------------------------------------
  free energy    TOTEN  =      -104.88326482 eV

  energy without entropy =     -104.88326482  energy(sigma->0) =     -104.88326482


--------------------------------------------------------------------------------------------------------




--------------------------------------- Iteration      1(  21)  ---------------------------------------


    POTLOK:  cpu time      0.1183: real time      0.1194
    SETDIJ:  cpu time      0.0030: real time      0.0030
    EDDIAG:  cpu time      0.0261: real time      0.0263
  RMM-DIIS:  cpu time      0.2335: real time      0.2358
    ORTHCH:  cpu time      0.0021: real time      0.0021
       DOS:  cpu time      0.0001: real time      0.0001
    CHARGE:  cpu time      0.0169: real time      0.0171
    MIXING:  cpu time      0.0059: real time      0.0081
    --------------------------------------------
      LOOP:  cpu time      0.4060: real time      0.4119

 eigenvalue-minimisations  :   112
 total energy-change (2. order) : 0.7129918E+01  (-0.1646294E+01)
 number of electron      48.0000013 magnetization 
 augmentation part        2.6278463 magnetization 

 Broyden mixing:
  rms(total) = 0.91678E+00    rms(broyden)= 0.91669E+00
  rms(prec ) = 0.10511E+01
  weight for this iteration     100.00

 eigenvalues of (default mixing * dielectric matrix)
  average eigenvalue GAMMA=   1.3485
  1.3485

 Free energy of the ion-electron system (eV)
  ---------------------------------------------------
  alpha Z        PSCENC =         9.76196320
  Ewald energy   TEWEN  =      1955.56090120
  -Hartree energ DENC   =     -3766.76658164
  -exchange      EXHF   =         0.00000000
  -V(xc)+E(xc)   XCENC  =       180.28705334
  PAW double counting   =      2597.66940375    -2610.32123302
  entropy T*S    EENTRO =        -0.00000000
  eigenvalues    EBANDS =      -727.82216202
  atomic energy  EATOM  =      2263.87730879
  Solvation  Ediel_sol  =         0.00000000
  ---------------------------------------------------
  free energy    TOTEN  =       -97.75334640 eV

  energy without entropy =      -97.75334640  energy(sigma->0) =      -97.75334640


--------------------------------------------------------------------------------------------------------




--------------------------------------- Iteration      1(  22)  ---------------------------------------


    POTLOK:  cpu time      0.1170: real time      0.1178
    SETDIJ:  cpu time      0.0024: real time      0.0025
    EDDIAG:  cpu time      0.0254: real time      0.0257
  RMM-DIIS:  cpu time      0.2307: real time      0.2329
    ORTHCH:  cpu time      0.0023: real time      0.0023
       DOS:  cpu time      0.0001: real time      0.0001
    CHARGE:  cpu time      0.0164: real time      0.0165
    MIXING:  cpu time      0.0043: real time      0.0044
    --------------------------------------------
      LOOP:  cpu time      0.3988: real time      0.4022

 eigenvalue-minimisations  :   112
 total energy-change (2. order) : 0.1449908E+01  (-0.2269815E+00)
 number of electron      48.0000013 magnetization 
 augmentation part        2.5927090 magnetization 

 Broyden mixing:
  rms(total) = 0.43153E+00    rms(broyden)= 0.43150E+00
  rms(prec ) = 0.48449E+00
  weight for this iteration     100.00

 eigenvalues of (default mixing * dielectric matrix)
  average eigenvalue GAMMA=   1.6593
  1.0934  2.2253

 Free energy of the ion-electron system (eV)
  ---------------------------------------------------
  alpha Z        PSCENC =         9.76196320
  Ewald energy   TEWEN  =      1955.56090120
  -Hartree energ DENC   =     -3815.44511696
  -exchange      EXHF   =         0.00000000
  -V(xc)+E(xc)   XCENC  =       182.70153986
  PAW double counting   =      3554.75817536    -3567.84210367
  entropy T*S    EENTRO =        -0.00000000
  eigenvalues    EBANDS =      -679.67610590
  atomic energy  EATOM  =      2263.87730879
  Solvation  Ediel_sol  =         0.00000000
  ---------------------------------------------------
  free energy    TOTEN  =       -96.30343812 eV

  energy without entropy =      -96.30343812  energy(sigma->0) =      -96.30343812


--------------------------------------------------------------------------------------------------------




--------------------------------------- Iteration      1(  23)  ---------------------------------------


    POTLOK:  cpu time      0.1103: real time      0.1112
    SETDIJ:  cpu time      0.0022: real time      0.0022
    EDDIAG:  cpu time      0.0254: real time      0.0256
  RMM-DIIS:  cpu time      0.2308: real time      0.2329
    ORTHCH:  cpu time      0.0024: real time      0.0024
       DOS:  cpu time      0.0001: real time      0.0001
    CHARGE:  cpu time      0.0164: real time      0.0165
    MIXING:  cpu time      0.0043: real time      0.0044
    --------------------------------------------
      LOOP:  cpu time      0.3919: real time      0.3954

 eigenvalue-minimisations  :   112
 total energy-change (2. order) : 0.2898247E+00  (-0.5446111E-01)
 number of electron      48.0000013 magnetization 
 augmentation part        2.5649063 magnetization 

 Broyden mixing:
  rms(total) = 0.10910E+00    rms(broyden)= 0.10906E+00
  rms(prec ) = 0.14070E+00
  weight for this iteration     100.00

 eigenvalues of (default mixing * dielectric matrix)
  average eigenvalue GAMMA=   1.5797
  2.2194  0.9605  1.5594

 Free energy of the ion-electron system (eV)
  ---------------------------------------------------
  alpha Z        PSCENC =         9.76196320
  Ewald energy   TEWEN  =      1955.56090120
  -Hartree energ DENC   =     -3846.97450431
  -exchange      EXHF   =         0.00000000
  -V(xc)+E(xc)   XCENC  =       184.32500803
  PAW double counting   =      4366.86030641    -4380.11438011
  entropy T*S    EENTRO =        -0.00000000
  eigenvalues    EBANDS =      -649.31021669
  atomic energy  EATOM  =      2263.87730879
  Solvation  Ediel_sol  =         0.00000000
  ---------------------------------------------------
  free energy    TOTEN  =       -96.01361347 eV

  energy without entropy =      -96.01361347  energy(sigma->0) =      -96.01361347


--------------------------------------------------------------------------------------------------------




--------------------------------------- Iteration      1(  24)  ---------------------------------------


    POTLOK:  cpu time      0.1106: real time      0.1116
    SETDIJ:  cpu time      0.0023: real time      0.0023
    EDDIAG:  cpu time      0.0262: real time      0.0265
  RMM-DIIS:  cpu time      0.2287: real time      0.2309
    ORTHCH:  cpu time      0.0024: real time      0.0024
       DOS:  cpu time      0.0001: real time      0.0001
    CHARGE:  cpu time      0.0189: real time      0.0191
    MIXING:  cpu time      0.0049: real time      0.0049
    --------------------------------------------
      LOOP:  cpu time      0.3940: real time      0.3978

 eigenvalue-minimisations  :   112
 total energy-change (2. order) : 0.2613163E-01  (-0.2470907E-02)
 number of electron      48.0000013 magnetization 
 augmentation part        2.5690676 magnetization 

 Broyden mixing:
  rms(total) = 0.33213E-01    rms(broyden)= 0.33210E-01
  rms(prec ) = 0.67540E-01
  weight for this iteration     100.00

 eigenvalues of (default mixing * dielectric matrix)
  average eigenvalue GAMMA=   1.5402
  2.1959  1.9405  0.9449  1.0797

 Free energy of the ion-electron system (eV)
  ---------------------------------------------------
  alpha Z        PSCENC =         9.76196320
  Ewald energy   TEWEN  =      1955.56090120
  -Hartree energ DENC   =     -3851.01939164
  -exchange      EXHF   =         0.00000000
  -V(xc)+E(xc)   XCENC  =       184.42734056
  PAW double counting   =      4480.73779252    -4493.89604506
  entropy T*S    EENTRO =        -0.00000000
  eigenvalues    EBANDS =      -645.43735141
  atomic energy  EATOM  =      2263.87730879
  Solvation  Ediel_sol  =         0.00000000
  ---------------------------------------------------
  free energy    TOTEN  =       -95.98748184 eV

  energy without entropy =      -95.98748184  energy(sigma->0) =      -95.98748184


--------------------------------------------------------------------------------------------------------




--------------------------------------- Iteration      1(  25)  ---------------------------------------


    POTLOK:  cpu time      0.1124: real time      0.1133
    SETDIJ:  cpu time      0.0022: real time      0.0022
    EDDIAG:  cpu time      0.0259: real time      0.0261
  RMM-DIIS:  cpu time      0.2040: real time      0.2059
    ORTHCH:  cpu time      0.0022: real time      0.0022
       DOS:  cpu time      0.0002: real time      0.0002
    CHARGE:  cpu time      0.0164: real time      0.0166
    MIXING:  cpu time      0.0053: real time      0.0053
    --------------------------------------------
      LOOP:  cpu time      0.3685: real time      0.3718

 eigenvalue-minimisations  :   102
 total energy-change (2. order) : 0.4687502E-02  (-0.3650135E-03)
 number of electron      48.0000013 magnetization 
 augmentation part        2.5679572 magnetization 

 Broyden mixing:
  rms(total) = 0.18164E-01    rms(broyden)= 0.18163E-01
  rms(prec ) = 0.46314E-01
  weight for this iteration     100.00

 eigenvalues of (default mixing * dielectric matrix)
  average eigenvalue GAMMA=   1.6598
  2.4353  2.4353  1.4808  0.9007  1.0468

 Free energy of the ion-electron system (eV)
  ---------------------------------------------------
  alpha Z        PSCENC =         9.76196320
  Ewald energy   TEWEN  =      1955.56090120
  -Hartree energ DENC   =     -3855.40484792
  -exchange      EXHF   =         0.00000000
  -V(xc)+E(xc)   XCENC  =       184.52409749
  PAW double counting   =      4502.99025920    -4516.12225193
  entropy T*S    EENTRO =        -0.00000000
  eigenvalues    EBANDS =      -641.17022438
  atomic energy  EATOM  =      2263.87730879
  Solvation  Ediel_sol  =         0.00000000
  ---------------------------------------------------
  free energy    TOTEN  =       -95.98279434 eV

  energy without entropy =      -95.98279434  energy(sigma->0) =      -95.98279434


--------------------------------------------------------------------------------------------------------




--------------------------------------- Iteration      1(  26)  ---------------------------------------


    POTLOK:  cpu time      0.1075: real time      0.1083
    SETDIJ:  cpu time      0.0024: real time      0.0024
    EDDIAG:  cpu time      0.0245: real time      0.0247
  RMM-DIIS:  cpu time      0.2222: real time      0.2242
    ORTHCH:  cpu time      0.0022: real time      0.0022
       DOS:  cpu time      0.0002: real time      0.0002
    CHARGE:  cpu time      0.0175: real time      0.0177
[...]
  ---------------------------------------------------
  free energy    TOTEN  =       -96.02818495 eV

  energy without entropy =      -96.02818495  energy(sigma->0) =      -96.02818495


--------------------------------------------------------------------------------------------------------




--------------------------------------- Iteration     10(   4)  ---------------------------------------


    POTLOK:  cpu time      0.1104: real time      0.1116
    SETDIJ:  cpu time      0.0023: real time      0.0023
    EDDIAG:  cpu time      0.0261: real time      0.0264
  RMM-DIIS:  cpu time      0.1147: real time      0.1158
    ORTHCH:  cpu time      0.0024: real time      0.0024
       DOS:  cpu time      0.0001: real time      0.0001
    CHARGE:  cpu time      0.0170: real time      0.0172
    MIXING:  cpu time      0.0044: real time      0.0044
    --------------------------------------------
      LOOP:  cpu time      0.2773: real time      0.2802

 eigenvalue-minimisations  :    55
 total energy-change (2. order) :-0.4657022E-06  (-0.6109295E-05)
 number of electron      48.0000007 magnetization 
 augmentation part        2.5491443 magnetization 

 Broyden mixing:
  rms(total) = 0.15564E-02    rms(broyden)= 0.15561E-02
  rms(prec ) = 0.17238E-02
  weight for this iteration     100.00

 eigenvalues of (default mixing * dielectric matrix)
  average eigenvalue GAMMA=   1.6093
  0.9116  1.9582  1.9582

 Free energy of the ion-electron system (eV)
  ---------------------------------------------------
  alpha Z        PSCENC =         9.76196320
  Ewald energy   TEWEN  =      1923.67742100
  -Hartree energ DENC   =     -3837.08741383
  -exchange      EXHF   =         0.00000000
  -V(xc)+E(xc)   XCENC  =       184.25568425
  PAW double counting   =      4401.97444112    -4415.03816177
  entropy T*S    EENTRO =        -0.00000000
  eigenvalues    EBANDS =      -627.44942819
  atomic energy  EATOM  =      2263.87730879
  Solvation  Ediel_sol  =         0.00000000
  ---------------------------------------------------
  free energy    TOTEN  =       -96.02818542 eV

  energy without entropy =      -96.02818542  energy(sigma->0) =      -96.02818542


--------------------------------------------------------------------------------------------------------




--------------------------------------- Iteration     10(   5)  ---------------------------------------


    POTLOK:  cpu time      0.1117: real time      0.1128
    SETDIJ:  cpu time      0.0019: real time      0.0019
    EDDIAG:  cpu time      0.0265: real time      0.0267
  RMM-DIIS:  cpu time      0.0957: real time      0.0966
    ORTHCH:  cpu time      0.0024: real time      0.0024
       DOS:  cpu time      0.0001: real time      0.0001
    CHARGE:  cpu time      0.0164: real time      0.0165
    MIXING:  cpu time      0.0048: real time      0.0060
    --------------------------------------------
      LOOP:  cpu time      0.2595: real time      0.2631

 eigenvalue-minimisations  :    43
 total energy-change (2. order) : 0.8822171E-06  (-0.2441629E-05)
 number of electron      48.0000007 magnetization 
 augmentation part        2.5491345 magnetization 

 Broyden mixing:
  rms(total) = 0.48963E-03    rms(broyden)= 0.48941E-03
  rms(prec ) = 0.59985E-03
  weight for this iteration     100.00

 eigenvalues of (default mixing * dielectric matrix)
  average eigenvalue GAMMA=   1.4574
  2.1574  0.9414  1.3653  1.3653

 Free energy of the ion-electron system (eV)
  ---------------------------------------------------
  alpha Z        PSCENC =         9.76196320
  Ewald energy   TEWEN  =      1923.67742100
  -Hartree energ DENC   =     -3837.07439278
  -exchange      EXHF   =         0.00000000
  -V(xc)+E(xc)   XCENC  =       184.25541607
  PAW double counting   =      4402.30570619    -4415.37006949
  entropy T*S    EENTRO =        -0.00000000
  eigenvalues    EBANDS =      -627.46153751
  atomic energy  EATOM  =      2263.87730879
  Solvation  Ediel_sol  =         0.00000000
  ---------------------------------------------------
  free energy    TOTEN  =       -96.02818453 eV

  energy without entropy =      -96.02818453  energy(sigma->0) =      -96.02818453


--------------------------------------------------------------------------------------------------------




--------------------------------------- Iteration     10(   6)  ---------------------------------------


    POTLOK:  cpu time      0.1090: real time      0.1101
    SETDIJ:  cpu time      0.0022: real time      0.0022
    EDDIAG:  cpu time      0.0259: real time      0.0262
  RMM-DIIS:  cpu time      0.0901: real time      0.0909
    ORTHCH:  cpu time      0.0024: real time      0.0024
       DOS:  cpu time      0.0001: real time      0.0001
    --------------------------------------------
      LOOP:  cpu time      0.2297: real time      0.2319

 eigenvalue-minimisations  :    40
 total energy-change (2. order) :-0.2335560E-06  (-0.4830708E-06)
 number of electron      48.0000007 magnetization 
 augmentation part        2.5491345 magnetization 

 Free energy of the ion-electron system (eV)
  ---------------------------------------------------
  alpha Z        PSCENC =         9.76196320
  Ewald energy   TEWEN  =      1923.67742100
  -Hartree energ DENC   =     -3837.07745065
  -exchange      EXHF   =         0.00000000
  -V(xc)+E(xc)   XCENC  =       184.25543574
  PAW double counting   =      4402.25353976    -4415.31767369
  entropy T*S    EENTRO =        -0.00000000
  eigenvalues    EBANDS =      -627.45872892
  atomic energy  EATOM  =      2263.87730879
  Solvation  Ediel_sol  =         0.00000000
  ---------------------------------------------------
  free energy    TOTEN  =       -96.02818477 eV

  energy without entropy =      -96.02818477  energy(sigma->0) =      -96.02818477


--------------------------------------------------------------------------------------------------------




 average (electrostatic) potential at core
  the test charge radii are     0.6991  0.7167  0.5201  0.7089
  (the norm of the test charge is              1.0000)
       1 -58.0114       2 -59.4439       3 -60.2420       4 -60.3659       5 -59.4912
       6 -85.5092       7 -41.3688       8 -41.4089       9 -41.3980      10 -43.9561
      11 -43.8775      12 -41.5060      13 -73.7674      14 -72.7300      15 -72.5168
 
 
 
 E-fermi :  -4.6542     XC(G=0):  -1.9364     alpha+bet : -0.9744

 Fermi energy:        -4.6542424471

 k-point     1 :       0.0000    0.0000    0.0000
  band No.  band energies     occupation 
      1     -30.1742      2.00000
      2     -24.1734      2.00000
      3     -22.7629      2.00000
      4     -21.0565      2.00000
      5     -18.9212      2.00000
      6     -17.3704      2.00000
      7     -15.5770      2.00000
      8     -14.9441      2.00000
      9     -13.5034      2.00000
     10     -12.7134      2.00000
     11     -12.4078      2.00000
     12     -11.5359      2.00000
     13     -11.0486      2.00000
     14     -10.4032      2.00000
     15      -9.7534      2.00000
     16      -9.3831      2.00000
     17      -9.2674      2.00000
     18      -8.8955      2.00000
     19      -8.8205      2.00000
     20      -7.8947      2.00000
     21      -6.5336      2.00000
     22      -6.2653      2.00000
     23      -5.2012      2.00000
     24      -5.1228      2.00000
     25      -1.0631      0.00000
     26      -0.6817      0.00000
     27      -0.3650      0.00000
     28       0.5076      0.00000
     29       0.7301      0.00000
     30       0.8417      0.00000
     31       1.1265      0.00000
     32       1.8366      0.00000


--------------------------------------------------------------------------------------------------------


 soft charge-density along one line, spin component           1
         0         1         2         3         4         5         6         7         8         9
 total charge-density along one line
 
 pseudopotential strength for first ion, spin component:           1
 10.208  13.575  -0.002  -0.000  -0.000   0.005   0.000   0.000
 13.575  18.051  -0.002  -0.000  -0.000   0.006   0.000   0.000
 -0.002  -0.002  -4.336  -0.000  -0.000   8.484   0.001   0.000
 -0.000  -0.000  -0.000  -4.334   0.000   0.001   8.480   0.000
 -0.000  -0.000  -0.000   0.000  -4.334   0.000   0.000   8.480
  0.005   0.006   8.484   0.001   0.000 -18.736  -0.001  -0.000
  0.000   0.000   0.001   8.480   0.000  -0.001 -18.726  -0.000
  0.000   0.000   0.000   0.000   8.480  -0.000  -0.000 -18.727
 total augmentation occupancy for first ion, spin component:           1
  7.815  -3.399  -0.028   0.014  -0.002  -0.017   0.002  -0.001
 -3.399   1.498   0.041  -0.008   0.002   0.013  -0.001   0.000
 -0.028   0.041   1.588  -0.012   0.000   0.139  -0.000   0.000
  0.014  -0.008  -0.012   1.658  -0.003  -0.000   0.134  -0.000
 -0.002   0.002   0.000  -0.003   1.630   0.000  -0.000   0.132
 -0.017   0.013   0.139  -0.000   0.000   0.013  -0.000   0.000
  0.002  -0.001  -0.000   0.134  -0.000  -0.000   0.011  -0.000
 -0.001   0.000   0.000  -0.000   0.132   0.000  -0.000   0.011


------------------------ aborting loop because EDIFF is reached ----------------------------------------





 total charge

# of ion       s       p       d       tot
------------------------------------------
    1        0.841   1.808   0.000   2.649
    2        0.864   1.745   0.000   2.609
    3        0.854   1.723   0.000   2.577
    4        0.861   1.767   0.000   2.628
    5        0.869   1.741   0.000   2.610
    6        1.748   4.358   0.000   6.106
    7        0.642   0.044   0.000   0.687
    8        0.634   0.043   0.000   0.677
    9        0.634   0.043   0.000   0.678
   10        0.636   0.086   0.000   0.722
   11        0.634   0.085   0.000   0.720
   12        0.651   0.044   0.000   0.696
   13        1.213   2.801   0.000   4.014
   14        1.262   2.644   0.000   3.907
   15        1.266   2.626   0.000   3.892
--------------------------------------------------
tot         13.610  21.561   0.000  35.171
 
    CHARGE:  cpu time      0.0169: real time      0.0171
    FORLOC:  cpu time      0.0152: real time      0.0153
    FORNL :  cpu time      0.0474: real time      0.0479
    STRESS:  cpu time      0.1474: real time      0.1488
    FORCOR:  cpu time      0.1146: real time      0.1153
    FORHAR:  cpu time      0.0384: real time      0.0386
    MIXING:  cpu time      0.0051: real time      0.0052
    OFIELD:  cpu time      0.0000: real time      0.0000

  FORCE on cell =-STRESS in cart. coord.  units (eV):
  Direction    XX          YY          ZZ          XY          YZ          ZX
  --------------------------------------------------------------------------------------
  Alpha Z     9.76196     9.76196     9.76196
  Ewald    -475.19144  1171.65195  1227.21528    47.49664    50.39483  -266.54856
  Hartree   744.14907  1542.65129  1550.28968    31.22103    71.33513  -158.16053
  E(xc)    -200.83007  -196.87112  -196.51619     0.08620    -0.21601    -0.50942
  Local    -873.50872 -3243.91183 -3281.88349   -76.77135  -138.98207   410.45000
  n-local  -112.03012  -115.55806  -113.77049    -0.06366    -0.95845    -0.04358
  augment    21.06019    20.13184    17.82814    -0.14558     1.57824     0.48507
  Kinetic   886.28603   811.98666   786.66446    -1.86083    17.07292    14.33375
  Fock        0.00000     0.00000     0.00000     0.00000     0.00000     0.00000
  -------------------------------------------------------------------------------------
  Total      -0.30309    -0.15730    -0.41064    -0.03757     0.22460     0.00673
  in kB      -0.47700    -0.24756    -0.64627    -0.05912     0.35348     0.01060
  external pressure =       -0.46 kB  Pullay stress =        0.00 kB


 VOLUME and BASIS-vectors are now :
 -----------------------------------------------------------------------------
  energy-cutoff  :      500.00
  volume of cell :     1018.02
      direct lattice vectors                 reciprocal lattice vectors
     7.745500000  0.000000000  0.000000000     0.129107224  0.000000000  0.000000000
     0.000000000 11.756100000  0.000000000     0.000000000  0.085062223  0.000000000
     0.000000000  0.000000000 11.180000000     0.000000000  0.000000000  0.089445438

  length of vectors
     7.745500000 11.756100000 11.180000000     0.129107224  0.085062223  0.089445438


 FORCES acting on ions
    electron-ion (+dipol)            ewald-force                    non-local-force                 convergence-correction
 -----------------------------------------------------------------------------------------------
   -.119E+01 -.200E+03 -.363E+02   0.126E+01 0.202E+03 0.363E+02   -.755E-01 -.152E+01 -.174E-02   0.377E-05 0.350E-03 -.316E-03
   0.607E+00 -.136E+03 -.417E+02   -.422E+00 0.138E+03 0.406E+02   -.187E+00 -.281E+01 0.111E+01   -.122E-03 -.268E-02 -.361E-03
   -.855E+00 -.254E+02 0.225E+02   -.133E+00 0.226E+02 -.147E+02   0.991E+00 0.279E+01 -.781E+01   -.285E-03 -.806E-03 0.379E-03
   -.374E+01 0.817E+02 0.554E+02   0.415E+01 -.788E+02 -.539E+02   -.387E+00 -.288E+01 -.153E+01   -.404E-03 -.340E-03 0.825E-03
   0.235E+02 0.121E+03 -.218E+03   -.239E+02 -.123E+03 0.221E+03   0.423E+00 0.143E+01 -.365E+01   -.208E-03 0.208E-03 -.944E-03
   -.407E+02 -.213E+03 0.376E+03   0.458E+02 0.237E+03 -.421E+03   -.511E+01 -.237E+02 0.443E+02   -.656E-03 0.130E-03 -.153E-03
   -.737E+01 -.623E+02 0.465E+02   0.806E+01 0.645E+02 -.516E+02   -.696E+00 -.222E+01 0.514E+01   0.343E-04 0.231E-03 -.471E-03
   0.536E+02 -.512E+02 -.296E+02   -.583E+02 0.532E+02 0.318E+02   0.470E+01 -.194E+01 -.220E+01   -.392E-03 0.239E-03 0.167E-03
   -.477E+02 -.487E+02 -.427E+02   0.517E+02 0.504E+02 0.460E+02   -.410E+01 -.171E+01 -.331E+01   0.335E-03 0.212E-03 0.274E-03
   -.275E+02 -.401E+01 0.933E+02   0.298E+02 0.737E+01 -.997E+02   -.239E+01 -.340E+01 0.634E+01   -.834E-04 -.175E-03 -.242E-03
   -.145E+02 0.995E+02 0.166E+02   0.157E+02 -.107E+03 -.158E+02   -.120E+01 0.741E+01 -.842E+00   -.143E-03 0.328E-04 -.548E-04
   0.819E+01 0.444E+02 -.780E+02   -.877E+01 -.473E+02 0.831E+02   0.565E+00 0.283E+01 -.514E+01   -.330E-04 -.114E-03 0.144E-03
   0.103E+02 0.196E+03 0.215E+03   -.216E+02 -.198E+03 -.220E+03   0.113E+02 0.234E+01 0.475E+01   0.522E-03 -.241E-02 0.348E-04
   0.134E+02 0.308E+03 -.884E+02   -.144E+02 -.341E+03 0.922E+02   0.914E+00 0.332E+02 -.376E+01   -.980E-03 0.160E-02 -.541E-03
   0.264E+02 -.104E+03 -.295E+03   -.290E+02 0.120E+03 0.325E+03   0.268E+01 -.165E+02 -.296E+02   -.295E-03 -.239E-02 -.104E-02
 -----------------------------------------------------------------------------------------------
   -.746E+01 0.657E+01 -.379E+01   0.711E-14 -.114E-12 0.114E-12   0.744E+01 -.659E+01 0.383E+01   -.270E-02 -.592E-02 -.230E-02
 
 
 POSITION                                       TOTAL-FORCE (eV/Angst)
 -----------------------------------------------------------------------------------
      3.93122      8.33858      6.15581        -0.001655     -0.024483      0.009348
      3.89741      6.84098      6.12928        -0.001248      0.013694      0.007052
      4.00023      6.11743      4.95542         0.003199      0.012888      0.012083
      3.96379      4.71038      4.97833         0.015932     -0.009755     -0.026295
      3.73579      4.84559      7.24201        -0.004776      0.026804     -0.016328
      4.14726      6.73735      3.73480         0.000705     -0.004805      0.028534
      4.06661      8.76195      5.15397        -0.003975      0.015786      0.033553
      2.99470      8.71929      6.58802         0.017411      0.014621     -0.001279
      4.74976      8.67457      6.80826        -0.017117      0.018494     -0.006178
      4.35974      4.43453      2.98728        -0.028646     -0.042807     -0.005904
      4.20244      2.98791      3.93754        -0.010785     -0.004840     -0.028510
      3.63105      4.31738      8.19428        -0.007369     -0.004355     -0.010302
      4.02742      3.97988      3.82884         0.047669      0.007528      0.015730
      3.83340      4.07141      6.15341        -0.009994     -0.019710     -0.002523
      3.75857      6.17794      7.30624         0.000650      0.000941     -0.008980
 -----------------------------------------------------------------------------------
    total drift:                               -0.017326     -0.029312      0.028724


--------------------------------------------------------------------------------------------------------



  FREE ENERGIE OF THE ION-ELECTRON SYSTEM (eV)
  ---------------------------------------------------
  free  energy   TOTEN  =       -96.02818477 eV

  energy  without entropy=      -96.02818477  energy(sigma->0) =      -96.02818477
 
 d Force = 0.4608504E-03[ 0.208E-03, 0.714E-03]  d Energy = 0.4623961E-03-0.155E-05
 d Force = 0.4729449E+00[ 0.474E+00, 0.472E+00]  d Ewald  = 0.4729446E+00 0.376E-06


--------------------------------------------------------------------------------------------------------


    POTLOK:  cpu time      0.1111: real time      0.1119


--------------------------------------------------------------------------------------------------------


 stress matrix after NEB project (eV)
     -0.30309     -0.03757      0.00673
     -0.03757     -0.15730      0.22460
      0.00673      0.22460     -0.41064
  FORCES: max atom, RMS     0.051844    0.030213
  FORCE total and by dimension    0.117014    0.047669
  Stress total and by dimension    0.623722    0.410638
 Conjugate gradient step on ions:
 trial-energy change:   -0.000462  1 .order   -0.000461   -0.000714   -0.000208
  (g-gl).g = 0.767E-03      g.g   = 0.769E-03  gl.gl    = 0.948E-03
 g(Force)  = 0.769E-03   g(Stress)= 0.000E+00 ortho     = 0.193E-04
 gamma     =   0.80927
 trial     =   0.90953
 opt step  =   1.28335  (harmonic =   1.28335) maximal distance =0.00302059
 next E    =   -96.028226   (d E  =  -0.00050)


--------------------------------------------------------------------------------------------------------


     LOOP+:  cpu time      2.1398: real time      2.2727
    4ORBIT:  cpu time      0.0000: real time      0.0000



 total charge

# of ion       s       p       d       tot
------------------------------------------
    1        0.841   1.808   0.000   2.649
    2        0.864   1.745   0.000   2.609
    3        0.854   1.723   0.000   2.577
    4        0.861   1.767   0.000   2.628
    5        0.869   1.741   0.000   2.610
    6        1.748   4.358   0.000   6.106
    7        0.642   0.044   0.000   0.687
    8        0.634   0.043   0.000   0.677
    9        0.634   0.043   0.000   0.678
   10        0.636   0.086   0.000   0.722
   11        0.634   0.085   0.000   0.720
   12        0.651   0.044   0.000   0.696
   13        1.213   2.801   0.000   4.014
   14        1.262   2.644   0.000   3.907
   15        1.266   2.626   0.000   3.892
--------------------------------------------------
tot         13.610  21.561   0.000  35.171
 

 total amount of memory used by VASP MPI-rank0    55860. kBytes
=======================================================================

   base      :      30000. kBytes
   nonlr-proj:        476. kBytes
   fftplans  :       7947. kBytes
   grid      :      16595. kBytes
   one-center:         12. kBytes
   wavefun   :        830. kBytes
 
  
  
 General timing and accounting informations for this job:
 ========================================================
  
                  Total CPU time used (sec):       32.991
                            User time (sec):       27.879
                          System time (sec):        5.112
                         Elapsed time (sec):       38.223
  
                   Maximum memory used (kb):      233872.
                   Average memory used (kb):          N/A
  
                          Minor page faults:        29316
                          Major page faults:         5651
                 Voluntary context switches:         2530
