<?xml version="1.0" encoding="ISO-8859-1"?>
<modeling>
 <generator>
  <i name="program" type="string">vasp </i>
  <i name="version" type="string">6.4.1  </i>
  <i name="subversion" type="string">05Apr23 (build Jun 16 2023 21:25:53) gamma-only                       parallel </i>
  <i name="platform" type="string">LinuxIFC </i>
  <i name="date" type="string">2024 07 14 </i>
  <i name="time" type="string">18:52:12 </i>
 </generator>
 <incar>
  <i type="string" name="SYSTEM">QM9</i>
  <i type="string" name="ALGO">V</i>
  <i type="int" name="NELM">   150</i>
  <i type="int" name="NELMDL">   -20</i>
  <i type="int" name="NELMIN">     6</i>
  <i type="int" name="IBRION">     2</i>
  <i name="EDIFF">      0.00001000</i>
  <i name="EDIFFG">     -0.02000000</i>
  <i type="int" name="NSW">    10</i>
  <i type="int" name="ISIF">     2</i>
  <i type="int" name="ISYM">     0</i>
  <i name="ENCUT">    500.00000000</i>
  <i name="POTIM">      0.20000000</i>
  <i type="string" name="LREAL">Auto</i>
  <i type="int" name="ISMEAR">     0</i>
  <i name="SIGMA">      0.10000000</i>
  <i type="logical" name="LWAVE"> F  </i>
  <i type="logical" name="LCHARG"> F  </i>
  <i type="int" name="LORBIT">    11</i>
 </incar>
 <primitive_cell>
  <structure name="primitive_cell" >
   <crystal>
    <varray name="basis" >
     <v>       7.74550000       0.00000000       0.00000000 </v>
     <v>       0.00000000      11.75610000       0.00000000 </v>
     <v>       0.00000000       0.00000000      11.18000000 </v>
    </varray>
    <i name="volume">   1018.01583511 </i>
    <varray name="rec_basis" >
     <v>       0.12910722       0.00000000       0.00000000 </v>
     <v>       0.00000000       0.08506222       0.00000000 </v>
     <v>       0.00000000       0.00000000       0.08944544 </v>
    </varray>
   </crystal>
   <varray name="positions" >
    <v>       0.50755923       0.70883201       0.55058140 </v>
    <v>       0.50311794       0.58117063       0.54780859 </v>
    <v>       0.51635143       0.52042769       0.44292487 </v>
    <v>       0.51162611       0.40102585       0.44569767 </v>
    <v>       0.48271900       0.41272191       0.64706619 </v>
    <v>       0.53509780       0.57190735       0.33593918 </v>
    <v>       0.52491124       0.74481333       0.46147585 </v>
    <v>       0.38732167       0.74138532       0.58894454 </v>
    <v>       0.61267833       0.73759155       0.60855993 </v>
    <v>       0.56299787       0.37718291       0.26833631 </v>
    <v>       0.54266348       0.25518667       0.35244186 </v>
    <v>       0.46904654       0.36792814       0.73166369 </v>
    <v>       0.51925634       0.33895595       0.34288909 </v>
    <v>       0.49522949       0.34690076       0.55011628 </v>
    <v>       0.48540443       0.52534429       0.65270125 </v>
   </varray>
  </structure>
  <varray name="primitive_index" >
   <v type="int" >        1 </v>
   <v type="int" >        2 </v>
   <v type="int" >        3 </v>
   <v type="int" >        4 </v>
   <v type="int" >        5 </v>
   <v type="int" >        6 </v>
   <v type="int" >        7 </v>
   <v type="int" >        8 </v>
   <v type="int" >        9 </v>
   <v type="int" >       10 </v>
   <v type="int" >       11 </v>
   <v type="int" >       12 </v>
   <v type="int" >       13 </v>
   <v type="int" >       14 </v>
   <v type="int" >       15 </v>
  </varray>
 </primitive_cell>
 <kpoints>
  <generation param="Gamma">
   <v type="int" name="divisions">       1        1        1 </v>
   <v name="usershift">      0.00000000       0.00000000       0.00000000 </v>
   <v name="genvec1">      1.00000000       0.00000000       0.00000000 </v>
   <v name="genvec2">      0.00000000       1.00000000       0.00000000 </v>
   <v name="genvec3">      0.00000000       0.00000000       1.00000000 </v>
   <v name="shift">      0.00000000       0.00000000       0.00000000 </v>
  </generation>
  <varray name="kpointlist" >
   <v>       0.00000000       0.00000000       0.00000000 </v>
  </varray>
  <varray name="weights" >
   <v>       1.00000000 </v>
  </varray>
 </kpoints>
 <parameters>
  <separator name="general" >
   <i type="string" name="SYSTEM">QM9</i>
   <i type="logical" name="LCOMPAT"> F  </i>
  </separator>
  <separator name="electronic" >
   <i type="string" name="PREC">normal</i>
   <i name="ENMAX">    500.00000000</i>
   <i name="ENAUG">    644.87300000</i>
   <i name="EDIFF">      0.00001000</i>
   <i type="int" name="IALGO">    48</i>
   <i type="int" name="IWAVPR">    11</i>
   <i type="int" name="NBANDS">    32</i>
   <i type="int" name="NBANDSLOW">    -1</i>
   <i type="int" name="NBANDSHIGH">    -1</i>
   <i name="NELECT">     48.00000000</i>
   <i type="int" name="TURBO">     0</i>
   <i type="int" name="IRESTART">     0</i>
   <i type="int" name="NREBOOT">     0</i>
   <i type="int" name="NMIN">     0</i>
   <i name="EREF">      0.00000000</i>
   <separator name="electronic smearing" >
    <i type="int" name="ISMEAR">     0</i>
    <i name="SIGMA">      0.10000000</i>
    <i name="KSPACING">      0.50000000</i>
    <i type="logical" name="KGAMMA"> T  </i>
    <i type="logical" name="KBLOWUP"> T  </i>
   </separator>
   <separator name="electronic projectors" >
    <i type="logical" name="LREAL"> T  </i>
    <v name="ROPT">     -0.00050000     -0.00050000     -0.00050000     -0.00050000</v>
    <i type="int" name="LMAXPAW">  -100</i>
    <i type="int" name="LMAXMIX">     2</i>
    <i type="logical" name="NLSPLINE"> F  </i>
   </separator>
   <separator name="electronic startup" >
    <i type="int" name="ISTART">     0</i>
    <i type="int" name="ICHARG">     2</i>
    <i type="int" name="INIWAV">     1</i>
   </separator>
   <separator name="electronic spin" >
    <i type="int" name="ISPIN">     1</i>
    <i type="logical" name="LNONCOLLINEAR"> F  </i>
    <v name="MAGMOM">      1.00000000      1.00000000      1.00000000      1.00000000      1.00000000      1.00000000      1.00000000      1.00000000      1.00000000      1.00000000      1.00000000      1.00000000      1.00000000      1.00000000      1.00000000</v>
    <i name="NUPDOWN">     -1.00000000</i>
    <i type="logical" name="LSORBIT"> F  </i>
    <v name="SAXIS">      0.00000000      0.00000000      1.00000000</v>
    <i type="logical" name="LSPIRAL"> F  </i>
    <v name="QSPIRAL">      0.00000000      0.00000000      0.00000000</v>
    <i type="logical" name="LZEROZ"> F  </i>
   </separator>
   <separator name="electronic exchange-correlation" >
    <i type="logical" name="LASPH"> F  </i>
    <i type="logical" name="LMETAGGA"> F  </i>
   </separator>
   <separator name="electronic convergence" >
    <i type="int" name="NELM">   150</i>
    <i type="int" name="NELMDL">   -20</i>
    <i type="int" name="NELMIN">     6</i>
    <i name="ENINI">    500.00000000</i>
    <separator name="electronic convergence detail" >
     <i type="logical" name="LDIAG"> T  </i>
     <i type="logical" name="LSUBROT"> F  </i>
     <i name="WEIMIN">      0.00100000</i>
     <i name="EBREAK">      0.00000008</i>
     <i name="DEPER">      0.30000000</i>
     <i type="int" name="NRMM">     4</i>
     <i name="TIME">      0.40000000</i>
    </separator>
   </separator>
   <separator name="electronic mixer" >
    <i name="AMIX">      0.40000000</i>
    <i name="BMIX">      1.00000000</i>
    <i name="AMIN">      0.10000000</i>
    <i name="AMIX_MAG">      1.60000000</i>
    <i name="BMIX_MAG">      1.00000000</i>
    <separator name="electronic mixer details" >
     <i type="int" name="IMIX">     4</i>
     <i type="logical" name="MIXFIRST"> F  </i>
     <i type="int" name="MAXMIX">   -45</i>
     <i name="WC">    100.00000000</i>
     <i type="int" name="INIMIX">     1</i>
     <i type="int" name="MIXPRE">     1</i>
     <i type="int" name="MREMOVE">     5</i>
    </separator>
   </separator>
   <separator name="electronic dipolcorrection" >
    <i type="logical" name="LDIPOL"> F  </i>
    <i type="logical" name="LMONO"> F  </i>
    <i type="int" name="IDIPOL">     0</i>
    <i name="EPSILON">      1.00000000</i>
    <v name="DIPOL">   -100.00000000   -100.00000000   -100.00000000</v>
    <i name="EFIELD">      0.00000000</i>
   </separator>
  </separator>
  <separator name="grids" >
   <i type="int" name="NGX">    42</i>
   <i type="int" name="NGY">    64</i>
   <i type="int" name="NGZ">    64</i>
   <i type="int" name="NGXF">    84</i>
   <i type="int" name="NGYF">   128</i>
   <i type="int" name="NGZF">   128</i>
   <i type="logical" name="ADDGRID"> F  </i>
  </separator>
  <separator name="ionic" >
   <i type="int" name="NSW">    10</i>
   <i type="int" name="IBRION">     2</i>
   <i type="int" name="MDALGO">     0</i>
   <i type="int" name="ISIF">     2</i>
   <i name="PSTRESS">      0.00000000</i>
   <i name="EDIFFG">     -0.02000000</i>
   <i type="int" name="NFREE">     1</i>
   <i name="POTIM">      0.20000000</i>
   <i name="SMASS">     -3.00000000</i>
   <i name="SCALEE">      1.00000000</i>
  </separator>
  <separator name="ionic md" >
   <i name="TEBEG">      0.00010000</i>
   <i name="TEEND">      0.00010000</i>
   <i type="int" name="NBLOCK">     1</i>
   <i type="int" name="KBLOCK">    10</i>
   <i type="int" name="NPACO">   256</i>
   <i name="APACO">     10.00000000</i>
  </separator>
  <separator name="symmetry" >
   <i type="int" name="ISYM">     0</i>
   <i name="SYMPREC">      0.00001000</i>
  </separator>
  <separator name="dos" >
   <i type="int" name="LORBIT">    11</i>
   <v name="RWIGS">     -1.00000000     -1.00000000     -1.00000000     -1.00000000</v>
   <i type="int" name="NEDOS">   301</i>
   <i name="EMIN">     10.00000000</i>
   <i name="EMAX">    -10.00000000</i>
   <i name="EFERMI">      0.00000000</i>
  </separator>
  <separator name="writing" >
   <i type="int" name="NWRITE">     2</i>
   <i type="logical" name="LWAVE"> F  </i>
   <i type="logical" name="LDOWNSAMPLE"> F  </i>
   <i type="logical" name="LCHARG"> F  </i>
   <i type="logical" name="LPARD"> F  </i>
   <i type="logical" name="LVTOT"> F  </i>
   <i type="logical" name="LVHAR"> F  </i>
   <i type="logical" name="LELF"> F  </i>
   <i type="logical" name="LOPTICS"> F  </i>
   <v name="STM">      0.00000000      0.00000000      0.00000000      0.00000000      0.00000000      0.00000000      0.00000000</v>
  </separator>
  <separator name="performance" >
   <i type="int" name="NPAR">     4</i>
   <i type="int" name="NSIM">     4</i>
   <i type="int" name="NBLK">    -1</i>
   <i type="logical" name="LPLANE"> T  </i>
   <i type="logical" name="LSCALAPACK"> T  </i>
   <i type="logical" name="LSCAAWARE"> F  </i>
   <i type="logical" name="LSCALU"> F  </i>
   <i type="logical" name="LASYNC"> F  </i>
   <i type="logical" name="LORBITALREAL"> F  </i>
  </separator>
  <separator name="miscellaneous" >
   <i type="int" name="IDIOT">     3</i>
   <i type="int" name="PHON_NSTRUCT">    -1</i>
   <i type="logical" name="LMUSIC"> F  </i>
   <v name="POMASS">     12.01100000     18.99800000      1.00000000     14.00100000</v>
   <v name="DARWINR">      0.00000000      0.00000000      0.00000000      0.00000000</v>
   <v name="DARWINV">      1.00000000      1.00000000      1.00000000      1.00000000</v>
   <i type="logical" name="LCORR"> T  </i>
  </separator>
  <i type="logical" name="GGA_COMPAT"> T  </i>
  <i type="logical" name="LBERRY"> F  </i>
  <i type="int" name="ICORELEVEL">     0</i>
  <i type="logical" name="LDAU"> F  </i>
  <i type="int" name="I_CONSTRAINED_M">     0</i>
  <separator name="electronic exchange-correlation" >
   <i type="string" name="GGA">--</i>
   <i type="int" name="VOSKOWN">     0</i>
   <i type="logical" name="LHFCALC"> F  </i>
   <i type="string" name="PRECFOCK"></i>
   <i type="logical" name="LSYMGRAD"> F  </i>
   <i type="logical" name="LHFONE"> F  </i>
   <i type="logical" name="LRHFCALC"> F  </i>
   <i type="logical" name="LTHOMAS"> F  </i>
   <i type="logical" name="LMODELHF"> F  </i>
   <i type="logical" name="LFOCKACE"> F  </i>
   <i name="ENCUT4O">     -1.00000000</i>
   <i type="int" name="EXXOEP">     0</i>
   <i type="int" name="FOURORBIT">     0</i>
   <i name="AEXX">      0.00000000</i>
   <i name="HFALPHA">      0.00000000</i>
   <i name="MCALPHA">      0.00000000</i>
   <i name="ALDAX">      1.00000000</i>
   <i name="AGGAX">      1.00000000</i>
   <i name="ALDAC">      1.00000000</i>
   <i name="AGGAC">      1.00000000</i>
   <i type="int" name="NKREDX">     1</i>
   <i type="int" name="NKREDY">     1</i>
   <i type="int" name="NKREDZ">     1</i>
   <i type="logical" name="SHIFTRED"> F  </i>
   <i type="logical" name="ODDONLY"> F  </i>
   <i type="logical" name="EVENONLY"> F  </i>
   <i type="int" name="LMAXFOCK">     0</i>
   <i type="int" name="NMAXFOCKAE">     0</i>
   <i type="logical" name="LFOCKAEDFT"> F  </i>
   <i name="HFSCREEN">      0.00000000</i>
   <i name="HFSCREENC">      0.00000000</i>
   <i type="int" name="NBANDSGWLOW">     0</i>
  </separator>
  <separator name="vdW DFT" >
   <i type="logical" name="LUSE_VDW"> F  </i>
   <i type="int" name="IVDW_NL">     1</i>
   <i type="logical" name="LSPIN_VDW"> F  </i>
   <i name="Zab_VDW">     -0.84910000</i>
   <i name="PARAM1">      0.12340000</i>
   <i name="PARAM2">      1.00000000</i>
   <i name="PARAM3">      0.00000000</i>
  </separator>
  <separator name="model GW" >
   <i type="int" name="MODEL_GW">     0</i>
   <i name="MODEL_EPS0">     40.72063340</i>
   <i name="MODEL_ALPHA">      1.00000000</i>
  </separator>
  <separator name="linear response parameters" >
   <i type="logical" name="LEPSILON"> F  </i>
   <i type="logical" name="LRPA"> F  </i>
   <i type="logical" name="LNABLA"> F  </i>
   <i type="logical" name="LVEL"> F  </i>
   <i name="CSHIFT">      0.10000000</i>
   <i name="OMEGAMAX">     -1.00000000</i>
   <i name="DEG_THRESHOLD">      0.00200000</i>
   <i name="RTIME">     -0.10000000</i>
   <i name="WPLASMAI">      0.00000000</i>
   <v name="DFIELD">      0.00000000      0.00000000      0.00000000</v>
   <v name="WPLASMA">      0.00000000      0.00000000      0.00000000      0.00000000      0.00000000      0.00000000      0.00000000      0.00000000      0.00000000</v>
  </separator>
  <separator name="orbital magnetization" >
   <i type="logical" name="NUCIND"> F  </i>
   <v name="MAGPOS">      0.00000000      0.00000000      0.00000000</v>
   <i type="logical" name="LNICSALL"> T  </i>
   <i type="logical" name="ORBITALMAG"> F  </i>
   <i type="logical" name="LMAGBLOCH"> F  </i>
   <i type="logical" name="LCHIMAG"> F  </i>
   <i type="logical" name="LGAUGE"> T  </i>
   <i type="int" name="MAGATOM">     0</i>
   <v name="MAGDIPOL">      0.00000000      0.00000000      0.00000000</v>
   <v name="AVECCONST">      0.00000000      0.00000000      0.00000000</v>
  </separator>
  <separator name="response functions" >
   <i type="logical" name="LALL_IN_ONE"> F  </i>
   <i type="int" name="IALL_IN_ONE">    -1</i>
   <i type="int" name="NBANDS_WAVE">    -1</i>
   <i type="logical" name="LFINITE_TEMPERATURE"> F  </i>
   <i type="logical" name="LADDER"> F  </i>
   <i type="logical" name="LRPAFORCE"> F  </i>
   <i type="logical" name="LFXC"> F  </i>
   <i type="logical" name="LHARTREE"> T  </i>
   <i type="int" name="IBSE">     0</i>
   <v type="int" name="KPOINT">    -1     0     0     0</v>
   <i type="logical" name="LTCTC"> F  </i>
   <i type="logical" name="LTCTE"> F  </i>
   <i type="logical" name="LTETE"> F  </i>
   <i type="logical" name="LTRIPLET"> F  </i>
   <i type="logical" name="LFXCEPS"> F  </i>
   <i type="logical" name="LFXHEG"> F  </i>
   <i type="int" name="NATURALO">     2</i>
   <i type="logical" name="LHOLEGF"> F  </i>
   <i type="logical" name="L2ORDER"> F  </i>
   <i type="logical" name="LDMP1"> F  </i>
   <i type="logical" name="LMP2LT"> F  </i>
   <i type="logical" name="LSMP2LT"> F  </i>
   <i type="logical" name="LGWLF"> F  </i>
   <i name="ENCUTGW">     -1.60000002</i>
   <i name="ENCUTGWSOFT">     -1.60000002</i>
   <i name="ENCUTLF">     -1.00000000</i>
   <i type="logical" name="LESF_SPLINES"> F  </i>
   <i type="int" name="LMAXMP2">    -1</i>
   <i name="SCISSOR">      0.00000000</i>
   <i type="int" name="NOMEGA">     0</i>
   <i type="int" name="NOMEGAR">     0</i>
   <i type="int" name="NBANDSGW">    -1</i>
   <i type="int" name="NBANDSO">    -1</i>
   <i type="int" name="NBANDSV">    -1</i>
   <i type="int" name="NELMGW">     1</i>
   <i type="int" name="NELMHF">     1</i>
   <i type="int" name="DIM">     3</i>
   <i type="int" name="IESPILON">     4</i>
   <i type="int" name="ANTIRES">     0</i>
   <i name="OMEGAMAX">    -30.00000000</i>
   <i name="OMEGAMIN">    -30.00000000</i>
   <i name="OMEGATL">   -200.00000000</i>
   <i type="int" name="OMEGAGRID">     0</i>
   <i name="CSHIFT">     -0.10000000</i>
   <i type="logical" name="LSELFENERGY"> F  </i>
   <i type="logical" name="LSPECTRAL"> F  </i>
   <i type="logical" name="LSPECTRALGW"> F  </i>
   <i type="logical" name="LSINGLES"> F  </i>
   <i type="logical" name="LFERMIGW"> F  </i>
   <i type="logical" name="ODDONLYGW"> F  </i>
   <i type="logical" name="EVENONLYGW"> F  </i>
   <i type="int" name="NKREDLFX">     1</i>
   <i type="int" name="NKREDLFY">     1</i>
   <i type="int" name="NKREDLFZ">     1</i>
   <i type="int" name="MAXMEM">  2800</i>
   <i type="int" name="TELESCOPE">     0</i>
   <i type="int" name="NTAUPAR">    -1</i>
   <i type="int" name="NOMEGAPAR">    -1</i>
   <i name="DAMP_NEWTON">      0.80000001</i>
   <i name="LAMBDA">      1.00000000</i>
  </separator>
  <separator name="External order field" >
   <i name="OFIELD_KAPPA">      0.00000000</i>
   <v name="OFIELD_K">      0.00000000      0.00000000      0.00000000</v>
   <i name="OFIELD_Q6_NEAR">      0.00000000</i>
   <i name="OFIELD_Q6_FAR">      0.00000000</i>
   <i name="OFIELD_A">      0.00000000</i>
  </separator>
  <separator name="optional k-points parameters" >
   <i type="int" name="KPOINTS_OPT_MODE">     1</i>
   <i type="logical" name="LKPOINTS_OPT"> F  </i>
  </separator>
  <separator name="solvation model" >
   <i type="logical" name="LSOL"> F  </i>
  </separator>
 </parameters>
 <atominfo>
  <atoms>      15 </atoms>
  <types>       4 </types>
  <array name="atoms" >
   <dimension dim="1">ion</dimension>
   <field type="string">element</field>
   <field type="int">atomtype</field>
   <set>
    <rc><c>C </c><c>   1</c></rc>
    <rc><c>C </c><c>   1</c></rc>
    <rc><c>C </c><c>   1</c></rc>
    <rc><c>C </c><c>   1</c></rc>
    <rc><c>C </c><c>   1</c></rc>
    <rc><c>F </c><c>   2</c></rc>
    <rc><c>H </c><c>   3</c></rc>
    <rc><c>H </c><c>   3</c></rc>
    <rc><c>H </c><c>   3</c></rc>
    <rc><c>H </c><c>   3</c></rc>
    <rc><c>H </c><c>   3</c></rc>
    <rc><c>H </c><c>   3</c></rc>
    <rc><c>N </c><c>   4</c></rc>
    <rc><c>N </c><c>   4</c></rc>
    <rc><c>N </c><c>   4</c></rc>
   </set>
  </array>
  <array name="atomtypes" >
   <dimension dim="1">type</dimension>
   <field type="int">atomspertype</field>
   <field type="string">element</field>
   <field>mass</field>
   <field>valence</field>
   <field type="string">pseudopotential</field>
   <set>
    <rc><c>   5</c><c>C </c><c>     12.01100000</c><c>      4.00000000</c><c>  PAW_PBE C 08Apr2002                   </c></rc>
    <rc><c>   1</c><c>F </c><c>     18.99800000</c><c>      7.00000000</c><c>  PAW_PBE F 08Apr2002                   </c></rc>
    <rc><c>   6</c><c>H </c><c>      1.00000000</c><c>      1.00000000</c><c>  PAW_PBE H 15Jun2001                   </c></rc>
    <rc><c>   3</c><c>N </c><c>     14.00100000</c><c>      5.00000000</c><c>  PAW_PBE N 08Apr2002                   </c></rc>
   </set>
  </array>
 </atominfo>
 <structure name="initialpos" >
  <crystal>
   <varray name="basis" >
    <v>       7.74550000       0.00000000       0.00000000 </v>
    <v>       0.00000000      11.75610000       0.00000000 </v>
    <v>       0.00000000       0.00000000      11.18000000 </v>
   </varray>
   <i name="volume">   1018.01583511 </i>
   <varray name="rec_basis" >
    <v>       0.12910722       0.00000000       0.00000000 </v>
    <v>       0.00000000       0.08506222       0.00000000 </v>
    <v>       0.00000000       0.00000000       0.08944544 </v>
   </varray>
  </crystal>
  <varray name="positions" >
   <v>       0.50755923       0.70883201       0.55058140 </v>
   <v>       0.50311794       0.58117063       0.54780859 </v>
   <v>       0.51635143       0.52042769       0.44292487 </v>
   <v>       0.51162611       0.40102585       0.44569767 </v>
   <v>       0.48271900       0.41272191       0.64706619 </v>
   <v>       0.53509780       0.57190735       0.33593918 </v>
   <v>       0.52491124       0.74481333       0.46147585 </v>
   <v>       0.38732167       0.74138532       0.58894454 </v>
   <v>       0.61267833       0.73759155       0.60855993 </v>
   <v>       0.56299787       0.37718291       0.26833631 </v>
   <v>       0.54266348       0.25518667       0.35244186 </v>
   <v>       0.46904654       0.36792814       0.73166369 </v>
   <v>       0.51925634       0.33895595       0.34288909 </v>
   <v>       0.49522949       0.34690076       0.55011628 </v>
   <v>       0.48540443       0.52534429       0.65270125 </v>
  </varray>
 </structure>
 <calculation>
  <scstep>
   <time name="diag">    0.13    0.38</time>
   <time name="diis">    0.09    0.09</time>
   <time name="orth">    0.00    0.00</time>
   <time name="total">    0.35    0.66</time>
   <energy>
    <i name="alphaZ">      9.76196320 </i>
    <i name="ewald">   1955.56090120 </i>
    <i name="hartreedc">  -3684.16808813 </i>
    <i name="XCdc">    176.03635320 </i>
    <i name="pawpsdc">   1709.42040191 </i>
    <i name="pawaedc">  -1720.99522934 </i>
    <i name="eentropy">     -0.00097585 </i>
    <i name="bandstr">    160.77856830 </i>
    <i name="atom">   2263.87730879 </i>
    <i name="e_fr_energy">    870.27120327 </i>
    <i name="e_wo_entrp">    870.27217912 </i>
    <i name="e_0_energy">    870.27169119 </i>
   </energy>
  </scstep>
  <scstep>
   <time name="diag">    0.03    0.05</time>
   <time name="diis">    0.08    0.08</time>
   <time name="orth">    0.00    0.00</time>
   <time name="total">    0.11    0.14</time>
   <energy>
    <i name="e_fr_energy">    452.51012476 </i>
    <i name="e_wo_entrp">    452.51012537 </i>
    <i name="e_0_energy">    452.51012507 </i>
   </energy>
  </scstep>
  <scstep>
   <time name="diag">    0.03    0.03</time>
   <time name="diis">    0.08    0.08</time>
   <time name="orth">    0.00    0.00</time>
   <time name="total">    0.11    0.11</time>
   <energy>
    <i name="e_fr_energy">    266.36847518 </i>
    <i name="e_wo_entrp">    266.48156476 </i>
    <i name="e_0_energy">    266.42501997 </i>
   </energy>
  </scstep>
  <scstep>
   <time name="diag">    0.03    0.03</time>
   <time name="diis">    0.08    0.08</time>
   <time name="orth">    0.00    0.00</time>
   <time name="total">    0.11    0.11</time>
   <energy>
    <i name="e_fr_energy">    105.03774548 </i>
    <i name="e_wo_entrp">    105.03898190 </i>
    <i name="e_0_energy">    105.03836369 </i>
   </energy>
  </scstep>
  <scstep>
   <time name="diag">    0.02    0.03</time>
   <time name="diis">    0.08    0.08</time>
   <time name="orth">    0.00    0.00</time>
   <time name="total">    0.11    0.11</time>
   <energy>
    <i name="e_fr_energy">      3.81347157 </i>
    <i name="e_wo_entrp">      3.90575858 </i>
    <i name="e_0_energy">      3.85961508 </i>
   </energy>
  </scstep>
  <scstep>
   <time name="diag">    0.03    0.03</time>
   <time name="diis">    0.08    0.08</time>
   <time name="orth">    0.00    0.01</time>
   <time name="total">    0.11    0.12</time>
   <energy>
    <i name="e_fr_energy">    -60.58617500 </i>
    <i name="e_wo_entrp">    -60.53710291 </i>
    <i name="e_0_energy">    -60.56163896 </i>
   </energy>
  </scstep>
  <scstep>
   <time name="diag">    0.03    0.03</time>
   <time name="diis">    0.08    0.08</time>
   <time name="orth">    0.00    0.00</time>
   <time name="total">    0.11    0.11</time>
   <energy>
    <i name="e_fr_energy">    -90.57019143 </i>
    <i name="e_wo_entrp">    -90.57019143 </i>
    <i name="e_0_energy">    -90.57019143 </i>
   </energy>
  </scstep>
  <scstep>
   <time name="diag">    0.02    0.03</time>
   <time name="diis">    0.08    0.08</time>
   <time name="orth">    0.00    0.00</time>
   <time name="total">    0.11    0.11</time>
   <energy>
    <i name="e_fr_energy">   -101.15382646 </i>
    <i name="e_wo_entrp">   -101.15382646 </i>
    <i name="e_0_energy">   -101.15382646 </i>
   </energy>
  </scstep>
  <scstep>
   <time name="diag">    0.03    0.03</time>
   <time name="diis">    0.08    0.08</time>
   <time name="orth">    0.00    0.00</time>
   <time name="total">    0.11    0.11</time>
   <energy>
    <i name="e_fr_energy">   -103.59773663 </i>
    <i name="e_wo_entrp">   -103.59773663 </i>
    <i name="e_0_energy">   -103.59773663 </i>
   </energy>
  </scstep>
  <scstep>
   <time name="diag">    0.03    0.03</time>
   <time name="diis">    0.08    0.08</time>
   <time name="orth">    0.00    0.00</time>
   <time name="total">    0.11    0.11</time>
   <energy>
    <i name="e_fr_energy">   -104.45772974 </i>
    <i name="e_wo_entrp">   -104.45772974 </i>
    <i name="e_0_energy">   -104.45772974 </i>
   </energy>
  </scstep>
  <scstep>
   <time name="diag">    0.03    0.03</time>
   <time name="diis">    0.08    0.08</time>
   <time name="orth">    0.00    0.00</time>
   <time name="total">    0.11    0.11</time>
   <energy>
    <i name="e_fr_energy">   -104.72072049 </i>
    <i name="e_wo_entrp">   -104.72072049 </i>
    <i name="e_0_energy">   -104.72072049 </i>
   </energy>
  </scstep>
  <scstep>
   <time name="diag">    0.03    0.03</time>
   <time name="diis">    0.08    0.08</time>
   <time name="orth">    0.00    0.00</time>
   <time name="total">    0.11    0.11</time>
   <energy>
    <i name="e_fr_energy">   -104.81912546 </i>
    <i name="e_wo_entrp">   -104.81912546 </i>
    <i name="e_0_energy">   -104.81912546 </i>
   </energy>
  </scstep>
  <scstep>
   <time name="diag">    0.03    0.03</time>
   <time name="diis">    0.08    0.08</time>
   <time name="orth">    0.00    0.00</time>
   <time name="total">    0.11    0.11</time>
   <energy>
    <i name="e_fr_energy">   -104.85632067 </i>
    <i name="e_wo_entrp">   -104.85632067 </i>
    <i name="e_0_energy">   -104.85632067 </i>
   </energy>
  </scstep>
  <scstep>
   <time name="diag">    0.03    0.03</time>
   <time name="diis">    0.08    0.08</time>
   <time name="orth">    0.00    0.00</time>
   <time name="total">    0.11    0.11</time>
   <energy>
    <i name="e_fr_energy">   -104.87181314 </i>
    <i name="e_wo_entrp">   -104.87181314 </i>
    <i name="e_0_energy">   -104.87181314 </i>
   </energy>
  </scstep>
  <scstep>
   <time name="diag">    0.03    0.03</time>
   <time name="diis">    0.15    0.16</time>
   <time name="orth">    0.00    0.00</time>
   <time name="total">    0.17    0.19</time>
   <energy>
    <i name="e_fr_energy">   -104.88234562 </i>
    <i name="e_wo_entrp">   -104.88234562 </i>
    <i name="e_0_energy">   -104.88234562 </i>
   </energy>
  </scstep>
  <scstep>
   <time name="diag">    0.03    0.03</time>
   <time name="diis">    0.15    0.15</time>
   <time name="orth">    0.00    0.00</time>
   <time name="total">    0.18    0.18</time>
   <energy>
    <i name="e_fr_energy">   -104.88318244 </i>
    <i name="e_wo_entrp">   -104.88318244 </i>
    <i name="e_0_energy">   -104.88318244 </i>
   </energy>
  </scstep>
  <scstep>
   <time name="diag">    0.03    0.03</time>
   <time name="diis">    0.15    0.15</time>
   <time name="orth">    0.00    0.00</time>
   <time name="total">    0.17    0.18</time>
   <energy>
    <i name="e_fr_energy">   -104.88325787 </i>
    <i name="e_wo_entrp">   -104.88325787 </i>
    <i name="e_0_energy">   -104.88325787 </i>
   </energy>
  </scstep>
  <scstep>
   <time name="diag">    0.03    0.03</time>
   <time name="diis">    0.10    0.10</time>
   <time name="orth">    0.00    0.00</time>
   <time name="total">    0.13    0.13</time>
   <energy>
    <i name="e_fr_energy">   -104.88326343 </i>
    <i name="e_wo_entrp">   -104.88326343 </i>
    <i name="e_0_energy">   -104.88326343 </i>
   </energy>
  </scstep>
  <scstep>
   <time name="diag">    0.02    0.03</time>
   <time name="diis">    0.09    0.09</time>
   <time name="orth">    0.00    0.00</time>
   <time name="total">    0.12    0.12</time>
   <energy>
    <i name="e_fr_energy">   -104.88326456 </i>
    <i name="e_wo_entrp">   -104.88326456 </i>
    <i name="e_0_energy">   -104.88326456 </i>
   </energy>
  </scstep>
  <scstep>
   <time name="diag">    0.02    0.03</time>
   <time name="diis">    0.08    0.09</time>
   <time name="orth">    0.00    0.00</time>
   <time name="total">    0.14    0.15</time>
   <energy>
    <i name="e_fr_energy">   -104.88326482 </i>
    <i name="e_wo_entrp">   -104.88326482 </i>
    <i name="e_0_energy">   -104.88326482 </i>
   </energy>
  </scstep>
  <scstep>
   <time name="diag">    0.03    0.03</time>
   <time name="diis">    0.23    0.24</time>
   <time name="orth">    0.00    0.00</time>
   <time name="total">    0.41    0.41</time>
   <energy>
    <i name="e_fr_energy">    -97.75334640 </i>
    <i name="e_wo_entrp">    -97.75334640 </i>
    <i name="e_0_energy">    -97.75334640 </i>
   </energy>
  </scstep>
  <scstep>
   <time name="diag">    0.03    0.03</time>
   <time name="diis">    0.23    0.23</time>
   <time name="orth">    0.00    0.00</time>
   <time name="total">    0.40    0.40</time>
   <energy>
    <i name="e_fr_energy">    -96.30343812 </i>
    <i name="e_wo_entrp">    -96.30343812 </i>
    <i name="e_0_energy">    -96.30343812 </i>
   </energy>
  </scstep>
  <scstep>
   <time name="diag">    0.03    0.03</time>
   <time name="diis">    0.23    0.23</time>
   <time name="orth">    0.00    0.00</time>
   <time name="total">    0.39    0.40</time>
   <energy>
    <i name="e_fr_energy">    -96.01361347 </i>
    <i name="e_wo_entrp">    -96.01361347 </i>
    <i name="e_0_energy">    -96.01361347 </i>
   </energy>
  </scstep>
  <scstep>
   <time name="diag">    0.03    0.03</time>
   <time name="diis">    0.23    0.23</time>
   <time name="orth">    0.00    0.00</time>
   <time name="total">    0.39    0.40</time>
   <energy>
    <i name="e_fr_energy">    -95.98748184 </i>
    <i name="e_wo_entrp">    -95.98748184 </i>
    <i name="e_0_energy">    -95.98748184 </i>
   </energy>
  </scstep>
  <scstep>
   <time name="diag">    0.03    0.03</time>
   <time name="diis">    0.20    0.21</time>
   <time name="orth">    0.00    0.00</time>
   <time name="total">    0.37    0.37</time>
   <energy>
    <i name="e_fr_energy">    -95.98279434 </i>
    <i name="e_wo_entrp">    -95.98279434 </i>
    <i name="e_0_energy">    -95.98279434 </i>
   </energy>
  </scstep>
  <scstep>
   <time name="diag">    0.02    0.02</time>
   <time name="diis">    0.22    0.22</time>
   <time name="orth">    0.00    0.00</time>
   <time name="total">    0.38    0.38</time>
   <energy>
    <i name="e_fr_energy">    -95.98464470 </i>
    <i name="e_wo_entrp">    -95.98464470 </i>
    <i name="e_0_energy">    -95.98464470 </i>
   </energy>
  </scstep>
  <scstep>
   <time name="diag">    0.02    0.02</time>
   <time name="diis">    0.18    0.19</time>
   <time name="orth">    0.00    0.00</time>
   <time name="total">    0.35    0.35</time>
   <energy>
    <i name="e_fr_energy">    -95.98886168 </i>
    <i name="e_wo_entrp">    -95.98886168 </i>
    <i name="e_0_energy">    -95.98886168 </i>
   </energy>
  </scstep>
  <scstep>
   <time name="diag">    0.03    0.03</time>
   <time name="diis">    0.16    0.16</time>
   <time name="orth">    0.00    0.00</time>
   <time name="total">    0.32    0.32</time>
   <energy>
    <i name="e_fr_energy">    -95.99449785 </i>
    <i name="e_wo_entrp">    -95.99449785 </i>
    <i name="e_0_energy">    -95.99449785 </i>
   </energy>
  </scstep>
  <scstep>
   <time name="diag">    0.03    0.03</time>
   <time name="diis">    0.14    0.15</time>
   <time name="orth">    0.00    0.00</time>
   <time name="total">    0.30    0.30</time>
   <energy>
    <i name="e_fr_energy">    -95.99921534 </i>
    <i name="e_wo_entrp">    -95.99921534 </i>
    <i name="e_0_energy">    -95.99921534 </i>
   </energy>
  </scstep>
  <scstep>
   <time name="diag">    0.02    0.02</time>
   <time name="diis">    0.15    0.15</time>
   <time name="orth">    0.00    0.00</time>
   <time name="total">    0.31    0.31</time>
   <energy>
    <i name="e_fr_energy">    -96.00204612 </i>
    <i name="e_wo_entrp">    -96.00204612 </i>
    <i name="e_0_energy">    -96.00204612 </i>
   </energy>
  </scstep>
  <scstep>
   <time name="diag">    0.03    0.03</time>
   <time name="diis">    0.12    0.13</time>
   <time name="orth">    0.00    0.00</time>
   <time name="total">    0.29    0.29</time>
   <energy>
    <i name="e_fr_energy">    -96.00269293 </i>
    <i name="e_wo_entrp">    -96.00269293 </i>
    <i name="e_0_energy">    -96.00269293 </i>
   </energy>
  </scstep>
  <scstep>
   <time name="diag">    0.03    0.03</time>
   <time name="diis">    0.11    0.11</time>
   <time name="orth">    0.00    0.00</time>
   <time name="total">    0.27    0.27</time>
   <energy>
    <i name="e_fr_energy">    -96.00297172 </i>
    <i name="e_wo_entrp">    -96.00297172 </i>
    <i name="e_0_energy">    -96.00297172 </i>
   </energy>
  </scstep>
  <scstep>
   <time name="diag">    0.03    0.03</time>
   <time name="diis">    0.10    0.10</time>
   <time name="orth">    0.00    0.00</time>
   <time name="total">    0.26    0.26</time>
   <energy>
    <i name="e_fr_energy">    -96.00303850 </i>
    <i name="e_wo_entrp">    -96.00303850 </i>
    <i name="e_0_energy">    -96.00303850 </i>
   </energy>
  </scstep>
  <scstep>
   <time name="diag">    0.03    0.03</time>
   <time name="diis">    0.09    0.09</time>
   <time name="orth">    0.00    0.00</time>
   <time name="total">    0.25    0.25</time>
   <energy>
    <i name="e_fr_energy">    -96.00307850 </i>
    <i name="e_wo_entrp">    -96.00307850 </i>
    <i name="e_0_energy">    -96.00307850 </i>
   </energy>
  </scstep>
  <scstep>
   <time name="diag">    0.03    0.03</time>
   <time name="diis">    0.08    0.08</time>
   <time name="orth">    0.00    0.00</time>
   <time name="total">    0.24    0.24</time>
   <energy>
    <i name="e_fr_energy">    -96.00309231 </i>
    <i name="e_wo_entrp">    -96.00309231 </i>
    <i name="e_0_energy">    -96.00309231 </i>
   </energy>
  </scstep>
  <scstep>
   <time name="diag">    0.02    0.03</time>
   <time name="diis">    0.07    0.07</time>
   <time name="orth">    0.00    0.00</time>
   <time name="total">    0.21    0.21</time>
   <energy>
    <i name="alphaZ">      9.76196320 </i>
    <i name="ewald">   1955.56090120 </i>
    <i name="hartreedc">  -3866.83490402 </i>
    <i name="XCdc">    184.67243616 </i>
    <i name="pawpsdc">   4475.51265696 </i>
    <i name="pawaedc">  -4488.63254138 </i>
    <i name="eentropy">     -0.00000000 </i>
    <i name="bandstr">   -629.92091620 </i>
    <i name="atom">   2263.87730879 </i>
    <i name="e_fr_energy">    -96.00309529 </i>
    <i name="e_wo_entrp">    -96.00309529 </i>
    <i name="e_0_energy">    -96.00309529 </i>
   </energy>
  </scstep>
  <structure>
   <crystal>
    <varray name="basis" >
     <v>       7.74550000       0.00000000       0.00000000 </v>
     <v>       0.00000000      11.75610000       0.00000000 </v>
     <v>       0.00000000       0.00000000      11.18000000 </v>
    </varray>
    <i name="volume">   1018.01583511 </i>
    <varray name="rec_basis" >
     <v>       0.12910722       0.00000000       0.00000000 </v>
     <v>       0.00000000       0.08506222       0.00000000 </v>
     <v>       0.00000000       0.00000000       0.08944544 </v>
    </varray>
   </crystal>
   <varray name="positions" >
    <v>       0.50755923       0.70883201       0.55058140 </v>
    <v>       0.50311794       0.58117063       0.54780859 </v>
    <v>       0.51635143       0.52042769       0.44292487 </v>
    <v>       0.51162611       0.40102585       0.44569767 </v>
    <v>       0.48271900       0.41272191       0.64706619 </v>
    <v>       0.53509780       0.57190735       0.33593918 </v>
    <v>       0.52491124       0.74481333       0.46147585 </v>
    <v>       0.38732167       0.74138532       0.58894454 </v>
    <v>       0.61267833       0.73759155       0.60855993 </v>
    <v>       0.56299787       0.37718291       0.26833631 </v>
    <v>       0.54266348       0.25518667       0.35244186 </v>
    <v>       0.46904654       0.36792814       0.73166369 </v>
    <v>       0.51925634       0.33895595       0.34288909 </v>
    <v>       0.49522949       0.34690076       0.55011628 </v>
    <v>       0.48540443       0.52534429       0.65270125 </v>
   </varray>
  </structure>
  <varray name="forces" >
   <v>      -0.00673407      -0.20727992      -0.03786112 </v>
   <v>       0.01456052       0.50408703       0.06966308 </v>
   <v>      -0.05875747      -0.38599841       0.61376512 </v>
   <v>       0.02384176      -0.05895259      -0.26029003 </v>
   <v>      -0.03509142      -0.19167434       0.09715246 </v>
   <v>       0.09867205       0.47587293      -0.83533051 </v>
   <v>       0.02082135       0.09069856      -0.14074023 </v>
   <v>      -0.13061518       0.04120132       0.06388240 </v>
   <v>       0.11235099       0.03452168       0.09222700 </v>
   <v>       0.06501941       0.10344820      -0.27462462 </v>
   <v>       0.02552335      -0.28226841       0.01713939 </v>
   <v>      -0.02068446      -0.10891780       0.19259756 </v>
   <v>      -0.06208204       0.05901646       0.09832046 </v>
   <v>      -0.02591174      -0.25764487       0.08765059 </v>
   <v>      -0.02091305       0.18389015       0.21644845 </v>
  </varray>
  <varray name="stress" >
   <v>       0.03814958       0.10538569      -0.58894139 </v>
   <v>       0.10538570       3.03647044      -0.95998145 </v>
   <v>      -0.58894138      -0.95998147       4.45202278 </v>
  </varray>
  <energy>
   <i name="e_fr_energy">    -96.00309529 </i>
   <i name="e_wo_entrp">    -96.00309529 </i>
   <i name="e_0_energy">    -96.00309529 </i>
  </energy>
  <time name="totalsc">    8.37    8.91</time>
 </calculation>
 <calculation>
  <scstep>
   <time name="diag">    0.03    0.03</time>
   <time name="diis">    0.13    0.13</time>
   <time name="orth">    0.00    0.00</time>
   <time name="total">    0.29    0.30</time>
   <energy>
    <i name="alphaZ">      9.76196320 </i>
    <i name="ewald">   1939.48783535 </i>
    <i name="hartreedc">  -3853.82691959 </i>
    <i name="XCdc">    184.52687284 </i>
    <i name="pawpsdc">   4475.50160983 </i>
    <i name="pawaedc">  -4488.62147159 </i>
    <i name="eentropy">     -0.00000000 </i>
    <i name="bandstr">   -626.71208101 </i>
    <i name="atom">   2263.87730879 </i>
    <i name="e_fr_energy">    -96.00488218 </i>
    <i name="e_wo_entrp">    -96.00488218 </i>
    <i name="e_0_energy">    -96.00488218 </i>
   </energy>
  </scstep>
  <scstep>
   <time name="diag">    0.03    0.03</time>
   <time name="diis">    0.13    0.13</time>
   <time name="orth">    0.00    0.00</time>
   <time name="total">    0.29    0.29</time>
   <energy>
    <i name="e_fr_energy">    -96.01747744 </i>
    <i name="e_wo_entrp">    -96.01747744 </i>
    <i name="e_0_energy">    -96.01747744 </i>
   </energy>
  </scstep>
  <scstep>
   <time name="diag">    0.03    0.03</time>
   <time name="diis">    0.13    0.13</time>
   <time name="orth">    0.00    0.00</time>
   <time name="total">    0.29    0.30</time>
   <energy>
    <i name="e_fr_energy">    -96.01976144 </i>
    <i name="e_wo_entrp">    -96.01976144 </i>
    <i name="e_0_energy">    -96.01976144 </i>
   </energy>
  </scstep>
  <scstep>
   <time name="diag">    0.03    0.03</time>
   <time name="diis">    0.13    0.13</time>
   <time name="orth">    0.00    0.00</time>
   <time name="total">    0.29    0.29</time>
   <energy>
    <i name="e_fr_energy">    -96.01936301 </i>
    <i name="e_wo_entrp">    -96.01936301 </i>
    <i name="e_0_energy">    -96.01936301 </i>
   </energy>
  </scstep>
  <scstep>
   <time name="diag">    0.03    0.03</time>
   <time name="diis">    0.13    0.14</time>
   <time name="orth">    0.00    0.00</time>
   <time name="total">    0.29    0.29</time>
   <energy>
    <i name="e_fr_energy">    -96.01922640 </i>
    <i name="e_wo_entrp">    -96.01922640 </i>
    <i name="e_0_energy">    -96.01922640 </i>
   </energy>
  </scstep>
  <scstep>
   <time name="diag">    0.03    0.03</time>
   <time name="diis">    0.13    0.13</time>
   <time name="orth">    0.00    0.00</time>
   <time name="total">    0.29    0.29</time>
   <energy>
    <i name="e_fr_energy">    -96.01924925 </i>
    <i name="e_wo_entrp">    -96.01924925 </i>
    <i name="e_0_energy">    -96.01924925 </i>
   </energy>
  </scstep>
  <scstep>
   <time name="diag">    0.03    0.03</time>
   <time name="diis">    0.13    0.13</time>
   <time name="orth">    0.00    0.00</time>
   <time name="total">    0.29    0.29</time>
   <energy>
    <i name="e_fr_energy">    -96.01931736 </i>
    <i name="e_wo_entrp">    -96.01931736 </i>
    <i name="e_0_energy">    -96.01931736 </i>
   </energy>
  </scstep>
  <scstep>
   <time name="diag">    0.03    0.03</time>
   <time name="diis">    0.12    0.12</time>
   <time name="orth">    0.00    0.00</time>
   <time name="total">    0.25    0.26</time>
   <energy>
    <i name="alphaZ">      9.76196320 </i>
    <i name="ewald">   1939.48783535 </i>
    <i name="hartreedc">  -3852.48580503 </i>
    <i name="XCdc">    184.44336767 </i>
    <i name="pawpsdc">   4439.28444689 </i>
    <i name="pawaedc">  -4452.36533699 </i>
    <i name="eentropy">     -0.00000000 </i>
    <i name="bandstr">   -628.02310679 </i>
    <i name="atom">   2263.87730879 </i>
    <i name="e_fr_energy">    -96.01932691 </i>
    <i name="e_wo_entrp">    -96.01932691 </i>
    <i name="e_0_energy">    -96.01932691 </i>
   </energy>
  </scstep>
  <structure>
   <crystal>
    <varray name="basis" >
     <v>       7.74550000       0.00000000       0.00000000 </v>
     <v>       0.00000000      11.75610000       0.00000000 </v>
     <v>       0.00000000       0.00000000      11.18000000 </v>
    </varray>
    <i name="volume">   1018.01583511 </i>
    <varray name="rec_basis" >
     <v>       0.12910722       0.00000000       0.00000000 </v>
     <v>       0.00000000       0.08506222       0.00000000 </v>
     <v>       0.00000000       0.00000000       0.08944544 </v>
    </varray>
   </crystal>
   <varray name="positions" >
    <v>       0.50754245       0.70849177       0.55051605 </v>
    <v>       0.50315422       0.58199806       0.54792883 </v>
    <v>       0.51620504       0.51979410       0.44398425 </v>
    <v>       0.51168550       0.40092908       0.44524840 </v>
    <v>       0.48263157       0.41240728       0.64723388 </v>
    <v>       0.53534363       0.57268847       0.33449737 </v>
    <v>       0.52496311       0.74496221       0.46123293 </v>
    <v>       0.38699626       0.74145295       0.58905481 </v>
    <v>       0.61295824       0.73764821       0.60871912 </v>
    <v>       0.56315986       0.37735271       0.26786230 </v>
    <v>       0.54272707       0.25472334       0.35247144 </v>
    <v>       0.46899501       0.36774936       0.73199612 </v>
    <v>       0.51910167       0.33905282       0.34305879 </v>
    <v>       0.49516493       0.34647785       0.55026757 </v>
    <v>       0.48535233       0.52564614       0.65307485 </v>
   </varray>
  </structure>
  <varray name="forces" >
   <v>       0.01422527       0.28739874      -0.01891418 </v>
   <v>      -0.01931273      -0.15332234       0.22797914 </v>
   <v>       0.06776485       0.36377303      -0.40853530 </v>
   <v>      -0.02972567      -0.18225034       0.24606978 </v>
   <v>      -0.01653466       0.06967286       0.00678415 </v>
   <v>      -0.00512445      -0.02250036       0.02216614 </v>
   <v>       0.00315845       0.02023350      -0.01932971 </v>
   <v>      -0.01534662      -0.00617074       0.01956676 </v>
   <v>       0.00542925      -0.00768760       0.01866486 </v>
   <v>      -0.04999287      -0.01563768      -0.00480469 </v>
   <v>      -0.03314625       0.00478516       0.01102839 </v>
   <v>      -0.01916085      -0.08997746       0.16413627 </v>
   <v>       0.12224918      -0.18670545      -0.35013825 </v>
   <v>      -0.01284212      -0.10225257      -0.01425423 </v>
   <v>      -0.01164078       0.02064126       0.09958088 </v>
  </varray>
  <varray name="stress" >
   <v>      -0.39731711       0.00192379      -0.19684251 </v>
   <v>       0.00192378       1.76555228       0.43549878 </v>
   <v>      -0.19684248       0.43549877       1.69888804 </v>
  </varray>
  <energy>
   <i name="e_fr_energy">    -96.01932691 </i>
   <i name="e_wo_entrp">    -96.01932691 </i>
   <i name="e_0_energy">    -96.01932691 </i>
  </energy>
  <time name="totalsc">    2.86    2.95</time>
 </calculation>
 <calculation>
  <scstep>
   <time name="diag">    0.02    0.02</time>
   <time name="diis">    0.13    0.13</time>
   <time name="orth">    0.00    0.00</time>
   <time name="total">    0.29    0.29</time>
   <energy>
    <i name="alphaZ">      9.76196320 </i>
    <i name="ewald">   1942.85867130 </i>
    <i name="hartreedc">  -3855.22609322 </i>
    <i name="XCdc">    184.47269756 </i>
    <i name="pawpsdc">   4439.23132284 </i>
    <i name="pawaedc">  -4452.31245413 </i>
    <i name="eentropy">     -0.00000000 </i>
    <i name="bandstr">   -628.68330319 </i>
    <i name="atom">   2263.87730879 </i>
    <i name="e_fr_energy">    -96.01988685 </i>
    <i name="e_wo_entrp">    -96.01988685 </i>
    <i name="e_0_energy">    -96.01988685 </i>
   </energy>
  </scstep>
  <scstep>
   <time name="diag">    0.03    0.03</time>
   <time name="diis">    0.13    0.13</time>
   <time name="orth">    0.00    0.00</time>
   <time name="total">    0.29    0.29</time>
   <energy>
    <i name="e_fr_energy">    -96.02053686 </i>
    <i name="e_wo_entrp">    -96.02053686 </i>
    <i name="e_0_energy">    -96.02053686 </i>
   </energy>
  </scstep>
  <scstep>
   <time name="diag">    0.03    0.03</time>
   <time name="diis">    0.13    0.13</time>
   <time name="orth">    0.00    0.00</time>
   <time name="total">    0.29    0.29</time>
   <energy>
    <i name="e_fr_energy">    -96.02068520 </i>
    <i name="e_wo_entrp">    -96.02068520 </i>
    <i name="e_0_energy">    -96.02068520 </i>
   </energy>
  </scstep>
  <scstep>
   <time name="diag">    0.03    0.03</time>
   <time name="diis">    0.12    0.13</time>
   <time name="orth">    0.00    0.00</time>
   <time name="total">    0.28    0.29</time>
   <energy>
    <i name="e_fr_energy">    -96.02070504 </i>
    <i name="e_wo_entrp">    -96.02070504 </i>
    <i name="e_0_energy">    -96.02070504 </i>
   </energy>
  </scstep>
  <scstep>
   <time name="diag">    0.03    0.03</time>
   <time name="diis">    0.13    0.13</time>
   <time name="orth">    0.00    0.00</time>
   <time name="total">    0.29    0.29</time>
   <energy>
    <i name="e_fr_energy">    -96.02073455 </i>
    <i name="e_wo_entrp">    -96.02073455 </i>
    <i name="e_0_energy">    -96.02073455 </i>
   </energy>
  </scstep>
  <scstep>
   <time name="diag">    0.03    0.03</time>
   <time name="diis">    0.09    0.09</time>
   <time name="orth">    0.00    0.00</time>
   <time name="total">    0.23    0.23</time>
   <energy>
    <i name="alphaZ">      9.76196320 </i>
    <i name="ewald">   1942.85867130 </i>
    <i name="hartreedc">  -3855.49608131 </i>
    <i name="XCdc">    184.48999355 </i>
    <i name="pawpsdc">   4446.61377436 </i>
    <i name="pawaedc">  -4459.70265408 </i>
    <i name="eentropy">     -0.00000000 </i>
    <i name="bandstr">   -628.42371213 </i>
    <i name="atom">   2263.87730879 </i>
    <i name="e_fr_energy">    -96.02073632 </i>
    <i name="e_wo_entrp">    -96.02073632 </i>
    <i name="e_0_energy">    -96.02073632 </i>
   </energy>
  </scstep>
  <structure>
   <crystal>
    <varray name="basis" >
     <v>       7.74550000       0.00000000       0.00000000 </v>
     <v>       0.00000000      11.75610000       0.00000000 </v>
     <v>       0.00000000       0.00000000      11.18000000 </v>
    </varray>
    <i name="volume">   1018.01583511 </i>
    <varray name="rec_basis" >
     <v>       0.12910722       0.00000000       0.00000000 </v>
     <v>       0.00000000       0.08506222       0.00000000 </v>
     <v>       0.00000000       0.00000000       0.08944544 </v>
    </varray>
   </crystal>
   <varray name="positions" >
    <v>       0.50754601       0.70856391       0.55052990 </v>
    <v>       0.50314652       0.58182262       0.54790333 </v>
    <v>       0.51623608       0.51992843       0.44375963 </v>
    <v>       0.51167291       0.40094960       0.44534366 </v>
    <v>       0.48265011       0.41247399       0.64719832 </v>
    <v>       0.53529151       0.57252285       0.33480307 </v>
    <v>       0.52495211       0.74493064       0.46128443 </v>
    <v>       0.38706525       0.74143861       0.58903143 </v>
    <v>       0.61289889       0.73763620       0.60868536 </v>
    <v>       0.56312551       0.37731671       0.26796281 </v>
    <v>       0.54271359       0.25482158       0.35246517 </v>
    <v>       0.46900594       0.36778726       0.73192563 </v>
    <v>       0.51913447       0.33903228       0.34302281 </v>
    <v>       0.49517862       0.34656751       0.55023549 </v>
    <v>       0.48536337       0.52558214       0.65299564 </v>
   </varray>
  </structure>
  <varray name="forces" >
   <v>       0.01160425       0.18497216      -0.02204644 </v>
   <v>      -0.01693894      -0.00816902       0.19064299 </v>
   <v>       0.04045346       0.21776375      -0.21024695 </v>
   <v>      -0.01773870      -0.15521972       0.13955371 </v>
   <v>      -0.01938169       0.01553930       0.02488777 </v>
   <v>       0.00904942       0.06693137      -0.13510105 </v>
   <v>       0.00789027       0.03462863      -0.04485854 </v>
   <v>      -0.03894564       0.00330938       0.02836343 </v>
   <v>       0.02941957       0.00066132       0.03378121 </v>
   <v>      -0.02497928       0.00857299      -0.06228092 </v>
   <v>      -0.01962076      -0.05594507       0.01165129 </v>
   <v>      -0.01841600      -0.09432776       0.16937989 </v>
   <v>       0.08489328      -0.13558219      -0.25423495 </v>
   <v>      -0.01445950      -0.13648880       0.00664440 </v>
   <v>      -0.01282974       0.05335366       0.12386418 </v>
  </varray>
  <varray name="stress" >
   <v>      -0.30554431       0.01737504      -0.26719398 </v>
   <v>       0.01737504       2.01390558       0.13402711 </v>
   <v>      -0.26719397       0.13402711       2.24543490 </v>
  </varray>
  <energy>
   <i name="e_fr_energy">    -96.02073632 </i>
   <i name="e_wo_entrp">    -96.02073632 </i>
   <i name="e_0_energy">    -96.02073632 </i>
  </energy>
  <time name="totalsc">    2.24    2.36</time>
 </calculation>
 <calculation>
  <scstep>
   <time name="diag">    0.03    0.03</time>
   <time name="diis">    0.13    0.13</time>
   <time name="orth">    0.00    0.00</time>
   <time name="total">    0.29    0.30</time>
   <energy>
    <i name="alphaZ">      9.76196320 </i>
    <i name="ewald">   1933.73626251 </i>
    <i name="hartreedc">  -3847.57401691 </i>
    <i name="XCdc">    184.41736230 </i>
    <i name="pawpsdc">   4446.64658583 </i>
    <i name="pawaedc">  -4459.73517002 </i>
    <i name="eentropy">     -0.00000000 </i>
    <i name="bandstr">   -627.15336013 </i>
    <i name="atom">   2263.87730879 </i>
    <i name="e_fr_energy">    -96.02306443 </i>
    <i name="e_wo_entrp">    -96.02306443 </i>
    <i name="e_0_energy">    -96.02306443 </i>
   </energy>
  </scstep>
  <scstep>
   <time name="diag">    0.03    0.03</time>
   <time name="diis">    0.13    0.13</time>
   <time name="orth">    0.00    0.00</time>
   <time name="total">    0.29    0.29</time>
   <energy>
    <i name="e_fr_energy">    -96.02506138 </i>
    <i name="e_wo_entrp">    -96.02506138 </i>
    <i name="e_0_energy">    -96.02506138 </i>
   </energy>
  </scstep>
  <scstep>
   <time name="diag">    0.03    0.03</time>
   <time name="diis">    0.13    0.14</time>
   <time name="orth">    0.00    0.00</time>
   <time name="total">    0.29    0.30</time>
   <energy>
    <i name="e_fr_energy">    -96.02549725 </i>
    <i name="e_wo_entrp">    -96.02549725 </i>
    <i name="e_0_energy">    -96.02549725 </i>
   </energy>
  </scstep>
  <scstep>
   <time name="diag">    0.03    0.03</time>
   <time name="diis">    0.13    0.14</time>
   <time name="orth">    0.00    0.00</time>
   <time name="total">    0.29    0.30</time>
   <energy>
    <i name="e_fr_energy">    -96.02540188 </i>
    <i name="e_wo_entrp">    -96.02540188 </i>
    <i name="e_0_energy">    -96.02540188 </i>
   </energy>
  </scstep>
  <scstep>
   <time name="diag">    0.03    0.03</time>
   <time name="diis">    0.13    0.13</time>
   <time name="orth">    0.00    0.00</time>
   <time name="total">    0.29    0.29</time>
   <energy>
    <i name="e_fr_energy">    -96.02540531 </i>
    <i name="e_wo_entrp">    -96.02540531 </i>
    <i name="e_0_energy">    -96.02540531 </i>
   </energy>
  </scstep>
  <scstep>
   <time name="diag">    0.03    0.03</time>
   <time name="diis">    0.13    0.13</time>
   <time name="orth">    0.00    0.00</time>
   <time name="total">    0.28    0.29</time>
   <energy>
    <i name="e_fr_energy">    -96.02536512 </i>
    <i name="e_wo_entrp">    -96.02536512 </i>
    <i name="e_0_energy">    -96.02536512 </i>
   </energy>
  </scstep>
  <scstep>
   <time name="diag">    0.03    0.03</time>
   <time name="diis">    0.11    0.11</time>
   <time name="orth">    0.00    0.00</time>
   <time name="total">    0.25    0.25</time>
   <energy>
    <i name="alphaZ">      9.76196320 </i>
    <i name="ewald">   1933.73626251 </i>
    <i name="hartreedc">  -3846.66850879 </i>
    <i name="XCdc">    184.38250450 </i>
    <i name="pawpsdc">   4426.72532752 </i>
    <i name="pawaedc">  -4439.79812977 </i>
    <i name="eentropy">     -0.00000000 </i>
    <i name="bandstr">   -628.04210216 </i>
    <i name="atom">   2263.87730879 </i>
    <i name="e_fr_energy">    -96.02537421 </i>
    <i name="e_wo_entrp">    -96.02537421 </i>
    <i name="e_0_energy">    -96.02537421 </i>
   </energy>
  </scstep>
  <structure>
   <crystal>
    <varray name="basis" >
     <v>       7.74550000       0.00000000       0.00000000 </v>
     <v>       0.00000000      11.75610000       0.00000000 </v>
     <v>       0.00000000       0.00000000      11.18000000 </v>
    </varray>
    <i name="volume">   1018.01583511 </i>
    <varray name="rec_basis" >
     <v>       0.12910722       0.00000000       0.00000000 </v>
     <v>       0.00000000       0.08506222       0.00000000 </v>
     <v>       0.00000000       0.00000000       0.08944544 </v>
    </varray>
   </crystal>
   <varray name="positions" >
    <v>       0.50757091       0.70879830       0.55048264 </v>
    <v>       0.50311212       0.58194685       0.54823835 </v>
    <v>       0.51630834       0.52016577       0.44358762 </v>
    <v>       0.51164043       0.40068959       0.44549990 </v>
    <v>       0.48258939       0.41244630       0.64726724 </v>
    <v>       0.53535382       0.57275746       0.33434093 </v>
    <v>       0.52497953       0.74500974       0.46117005 </v>
    <v>       0.38691843       0.74145502       0.58909657 </v>
    <v>       0.61301545       0.73764663       0.60876757 </v>
    <v>       0.56309275       0.37735832       0.26778134 </v>
    <v>       0.54267731       0.25465689       0.35248933 </v>
    <v>       0.46895346       0.36760938       0.73226066 </v>
    <v>       0.51931138       0.33883521       0.34263071 </v>
    <v>       0.49513343       0.34628292       0.55027153 </v>
    <v>       0.48532413       0.52571600       0.65326225 </v>
   </varray>
  </structure>
  <varray name="forces" >
   <v>      -0.00583666       0.12592683       0.04027962 </v>
   <v>       0.01127217      -0.02597799      -0.04951997 </v>
   <v>       0.02015734       0.07997607      -0.08557410 </v>
   <v>       0.01540620       0.01254758      -0.10980324 </v>
   <v>      -0.02617347      -0.01596130       0.10342916 </v>
   <v>       0.00667859       0.01056321      -0.00347582 </v>
   <v>       0.00582735       0.03286019      -0.03951406 </v>
   <v>      -0.01470265       0.01624356       0.01402088 </v>
   <v>       0.01090270       0.01700986       0.01652114 </v>
   <v>       0.00191371       0.01551936      -0.10311047 </v>
   <v>      -0.00734906      -0.06343039      -0.02938473 </v>
   <v>      -0.01005768      -0.03510729       0.06626103 </v>
   <v>       0.02708104      -0.05793974       0.02565735 </v>
   <v>      -0.02255890      -0.03967532       0.06969605 </v>
   <v>      -0.01256069      -0.07255464       0.08451715 </v>
  </varray>
  <varray name="stress" >
   <v>      -0.32545718      -0.00125512      -0.19778643 </v>
   <v>      -0.00125511       0.91383622      -0.02295268 </v>
   <v>      -0.19778646      -0.02295268       1.09160445 </v>
  </varray>
  <energy>
   <i name="e_fr_energy">    -96.02537421 </i>
   <i name="e_wo_entrp">    -96.02537421 </i>
   <i name="e_0_energy">    -96.02537421 </i>
  </energy>
  <time name="totalsc">    2.57    2.67</time>
 </calculation>
 <calculation>
  <scstep>
   <time name="diag">    0.02    0.02</time>
   <time name="diis">    0.13    0.13</time>
   <time name="orth">    0.00    0.00</time>
   <time name="total">    0.29    0.29</time>
   <energy>
    <i name="alphaZ">      9.76196320 </i>
    <i name="ewald">   1931.37955900 </i>
    <i name="hartreedc">  -3844.61147666 </i>
    <i name="XCdc">    184.36561364 </i>
    <i name="pawpsdc">   4425.66958771 </i>
    <i name="pawaedc">  -4438.74511012 </i>
    <i name="eentropy">     -0.00000000 </i>
    <i name="bandstr">   -627.72290473 </i>
    <i name="atom">   2263.87730879 </i>
    <i name="e_fr_energy">    -96.02545918 </i>
    <i name="e_wo_entrp">    -96.02545918 </i>
    <i name="e_0_energy">    -96.02545918 </i>
   </energy>
  </scstep>
  <scstep>
   <time name="diag">    0.03    0.03</time>
   <time name="diis">    0.13    0.13</time>
   <time name="orth">    0.00    0.00</time>
   <time name="total">    0.29    0.29</time>
   <energy>
    <i name="e_fr_energy">    -96.02558901 </i>
    <i name="e_wo_entrp">    -96.02558901 </i>
    <i name="e_0_energy">    -96.02558901 </i>
   </energy>
  </scstep>
  <scstep>
   <time name="diag">    0.03    0.03</time>
   <time name="diis">    0.13    0.13</time>
   <time name="orth">    0.00    0.00</time>
   <time name="total">    0.29    0.29</time>
   <energy>
    <i name="e_fr_energy">    -96.02562271 </i>
    <i name="e_wo_entrp">    -96.02562271 </i>
    <i name="e_0_energy">    -96.02562271 </i>
   </energy>
  </scstep>
  <scstep>
   <time name="diag">    0.03    0.03</time>
   <time name="diis">    0.11    0.11</time>
   <time name="orth">    0.00    0.00</time>
   <time name="total">    0.27    0.27</time>
   <energy>
    <i name="e_fr_energy">    -96.02561627 </i>
    <i name="e_wo_entrp">    -96.02561627 </i>
    <i name="e_0_energy">    -96.02561627 </i>
   </energy>
  </scstep>
  <scstep>
   <time name="diag">    0.03    0.03</time>
   <time name="diis">    0.11    0.11</time>
   <time name="orth">    0.00    0.00</time>
   <time name="total">    0.27    0.27</time>
   <energy>
    <i name="e_fr_energy">    -96.02561709 </i>
    <i name="e_wo_entrp">    -96.02561709 </i>
    <i name="e_0_energy">    -96.02561709 </i>
   </energy>
  </scstep>
  <scstep>
   <time name="diag">    0.03    0.03</time>
   <time name="diis">    0.10    0.10</time>
   <time name="orth">    0.00    0.00</time>
   <time name="total">    0.24    0.24</time>
   <energy>
    <i name="alphaZ">      9.76196320 </i>
    <i name="ewald">   1931.37955900 </i>
    <i name="hartreedc">  -3844.36364194 </i>
    <i name="XCdc">    184.35593107 </i>
    <i name="pawpsdc">   4420.60185777 </i>
    <i name="pawaedc">  -4433.67273909 </i>
    <i name="eentropy">     -0.00000000 </i>
    <i name="bandstr">   -627.96585605 </i>
    <i name="atom">   2263.87730879 </i>
    <i name="e_fr_energy">    -96.02561725 </i>
    <i name="e_wo_entrp">    -96.02561725 </i>
    <i name="e_0_energy">    -96.02561725 </i>
   </energy>
  </scstep>
  <structure>
   <crystal>
    <varray name="basis" >
     <v>       7.74550000       0.00000000       0.00000000 </v>
     <v>       0.00000000      11.75610000       0.00000000 </v>
     <v>       0.00000000       0.00000000      11.18000000 </v>
    </varray>
    <i name="volume">   1018.01583511 </i>
    <varray name="rec_basis" >
     <v>       0.12910722       0.00000000       0.00000000 </v>
     <v>       0.00000000       0.08506222       0.00000000 </v>
     <v>       0.00000000       0.00000000       0.08944544 </v>
    </varray>
   </crystal>
   <varray name="positions" >
    <v>       0.50757736       0.70885900       0.55047040 </v>
    <v>       0.50310321       0.58197903       0.54832513 </v>
    <v>       0.51632706       0.52022724       0.44354306 </v>
    <v>       0.51163202       0.40062225       0.44554036 </v>
    <v>       0.48257366       0.41243912       0.64728509 </v>
    <v>       0.53536996       0.57281822       0.33422123 </v>
    <v>       0.52498663       0.74503022       0.46114042 </v>
    <v>       0.38688041       0.74145927       0.58911345 </v>
    <v>       0.61304564       0.73764933       0.60878886 </v>
    <v>       0.56308427       0.37736909       0.26773434 </v>
    <v>       0.54266792       0.25461423       0.35249559 </v>
    <v>       0.46893987       0.36756331       0.73234743 </v>
    <v>       0.51935720       0.33878417       0.34252916 </v>
    <v>       0.49512172       0.34620921       0.55028087 </v>
    <v>       0.48531397       0.52575067       0.65333131 </v>
   </varray>
  </structure>
  <varray name="forces" >
   <v>      -0.01081615       0.11305854       0.05571058 </v>
   <v>       0.01767609      -0.02721048      -0.10879402 </v>
   <v>       0.01334511       0.03855390      -0.05389005 </v>
   <v>       0.02594253       0.05440377      -0.17572359 </v>
   <v>      -0.02763699      -0.02530963       0.12477656 </v>
   <v>       0.00197160       0.00220123       0.02807546 </v>
   <v>       0.00587822       0.03215561      -0.03835322 </v>
   <v>      -0.00801136       0.01956381       0.01031820 </v>
   <v>       0.00680484       0.02120172       0.01211416 </v>
   <v>       0.00949647       0.01743836      -0.11433951 </v>
   <v>      -0.00372051      -0.06592810      -0.04013508 </v>
   <v>      -0.00738076      -0.02042565       0.04016408 </v>
   <v>       0.01302144      -0.03894674       0.09735681 </v>
   <v>      -0.02425325      -0.01732678       0.08630542 </v>
   <v>      -0.01231728      -0.10342955       0.07641421 </v>
  </varray>
  <varray name="stress" >
   <v>      -0.35594726       0.00518664      -0.18352080 </v>
   <v>       0.00518664       0.59525137      -0.07950911 </v>
   <v>      -0.18352080      -0.07950911       0.77397953 </v>
  </varray>
  <energy>
   <i name="e_fr_energy">    -96.02561725 </i>
   <i name="e_wo_entrp">    -96.02561725 </i>
   <i name="e_0_energy">    -96.02561725 </i>
  </energy>
  <time name="totalsc">    2.21    2.32</time>
 </calculation>
 <calculation>
  <scstep>
   <time name="diag">    0.03    0.03</time>
   <time name="diis">    0.13    0.13</time>
   <time name="orth">    0.00    0.00</time>
   <time name="total">    0.29    0.29</time>
   <energy>
    <i name="alphaZ">      9.76196320 </i>
    <i name="ewald">   1926.20161328 </i>
    <i name="hartreedc">  -3839.90415451 </i>
    <i name="XCdc">    184.30897067 </i>
    <i name="pawpsdc">   4420.37391993 </i>
    <i name="pawaedc">  -4433.44510430 </i>
    <i name="eentropy">     -0.00000000 </i>
    <i name="bandstr">   -627.20076906 </i>
    <i name="atom">   2263.87730879 </i>
    <i name="e_fr_energy">    -96.02625200 </i>
    <i name="e_wo_entrp">    -96.02625200 </i>
    <i name="e_0_energy">    -96.02625200 </i>
   </energy>
  </scstep>
  <scstep>
   <time name="diag">    0.02    0.03</time>
   <time name="diis">    0.13    0.13</time>
   <time name="orth">    0.00    0.00</time>
   <time name="total">    0.29    0.29</time>
   <energy>
    <i name="e_fr_energy">    -96.02693155 </i>
    <i name="e_wo_entrp">    -96.02693155 </i>
    <i name="e_0_energy">    -96.02693155 </i>
   </energy>
  </scstep>
  <scstep>
   <time name="diag">    0.03    0.03</time>
   <time name="diis">    0.13    0.13</time>
   <time name="orth">    0.00    0.00</time>
   <time name="total">    0.29    0.30</time>
   <energy>
    <i name="e_fr_energy">    -96.02703631 </i>
    <i name="e_wo_entrp">    -96.02703631 </i>
    <i name="e_0_energy">    -96.02703631 </i>
   </energy>
  </scstep>
  <scstep>
   <time name="diag">    0.03    0.03</time>
   <time name="diis">    0.12    0.12</time>
   <time name="orth">    0.00    0.00</time>
   <time name="total">    0.28    0.28</time>
   <energy>
    <i name="e_fr_energy">    -96.02701191 </i>
    <i name="e_wo_entrp">    -96.02701191 </i>
    <i name="e_0_energy">    -96.02701191 </i>
   </energy>
  </scstep>
  <scstep>
   <time name="diag">    0.03    0.03</time>
   <time name="diis">    0.13    0.13</time>
   <time name="orth">    0.00    0.00</time>
   <time name="total">    0.29    0.29</time>
   <energy>
    <i name="e_fr_energy">    -96.02700443 </i>
    <i name="e_wo_entrp">    -96.02700443 </i>
    <i name="e_0_energy">    -96.02700443 </i>
   </energy>
  </scstep>
  <scstep>
   <time name="diag">    0.02    0.02</time>
   <time name="diis">    0.11    0.11</time>
   <time name="orth">    0.00    0.00</time>
   <time name="total">    0.25    0.25</time>
   <energy>
    <i name="alphaZ">      9.76196320 </i>
    <i name="ewald">   1926.20161328 </i>
    <i name="hartreedc">  -3839.44912698 </i>
    <i name="XCdc">    184.28994550 </i>
    <i name="pawpsdc">   4408.30905830 </i>
    <i name="pawaedc">  -4421.37304422 </i>
    <i name="eentropy">     -0.00000000 </i>
    <i name="bandstr">   -627.64472060 </i>
    <i name="atom">   2263.87730879 </i>
    <i name="e_fr_energy">    -96.02700272 </i>
    <i name="e_wo_entrp">    -96.02700272 </i>
    <i name="e_0_energy">    -96.02700272 </i>
   </energy>
  </scstep>
  <structure>
   <crystal>
    <varray name="basis" >
     <v>       7.74550000       0.00000000       0.00000000 </v>
     <v>       0.00000000      11.75610000       0.00000000 </v>
     <v>       0.00000000       0.00000000      11.18000000 </v>
    </varray>
    <i name="volume">   1018.01583511 </i>
    <varray name="rec_basis" >
     <v>       0.12910722       0.00000000       0.00000000 </v>
     <v>       0.00000000       0.08506222       0.00000000 </v>
     <v>       0.00000000       0.00000000       0.08944544 </v>
    </varray>
   </crystal>
   <varray name="positions" >
    <v>       0.50755969       0.70913501       0.55054928 </v>
    <v>       0.50313449       0.58198126       0.54826334 </v>
    <v>       0.51638801       0.52038119       0.44338399 </v>
    <v>       0.51168477       0.40061336       0.44529426 </v>
    <v>       0.48248123       0.41238675       0.64752820 </v>
    <v>       0.53539859       0.57291103       0.33409438 </v>
    <v>       0.52501180       0.74511345       0.46103027 </v>
    <v>       0.38680450       0.74149785       0.58915615 </v>
    <v>       0.61310701       0.73768834       0.60884117 </v>
    <v>       0.56309565       0.37741374       0.26746659 </v>
    <v>       0.54264479       0.25444264       0.35243500 </v>
    <v>       0.46890141       0.36746192       0.73254460 </v>
    <v>       0.51945712       0.33864488       0.34254937 </v>
    <v>       0.49504369       0.34607238       0.55044461 </v>
    <v>       0.48526815       0.52563056       0.65356549 </v>
   </varray>
  </structure>
  <varray name="forces" >
   <v>       0.00048684      -0.00038933       0.00392703 </v>
   <v>       0.00448383      -0.01582477       0.00043513 </v>
   <v>       0.00347375      -0.05234688      -0.01750184 </v>
   <v>      -0.00113770       0.03079874       0.07309640 </v>
   <v>      -0.01733562      -0.06038854       0.03820774 </v>
   <v>       0.00514824       0.02447453       0.01632550 </v>
   <v>       0.00085171       0.02993646       0.00093690 </v>
   <v>      -0.02010451       0.03346223       0.01747520 </v>
   <v>       0.01432704       0.03388042       0.01976217 </v>
   <v>      -0.04028795      -0.05946344       0.00564295 </v>
   <v>      -0.00440646      -0.05986092      -0.03448408 </v>
   <v>      -0.00969760      -0.02537186       0.04726505 </v>
   <v>       0.06654119       0.02981402      -0.06504168 </v>
   <v>      -0.00627820       0.08995374      -0.05524612 </v>
   <v>       0.00393545       0.00132559      -0.05080036 </v>
  </varray>
  <varray name="stress" >
   <v>      -0.36722390      -0.07575157      -0.03148568 </v>
   <v>      -0.07575157       0.05298732       0.32371892 </v>
   <v>      -0.03148570       0.32371889      -0.14587569 </v>
  </varray>
  <energy>
   <i name="e_fr_energy">    -96.02700272 </i>
   <i name="e_wo_entrp">    -96.02700272 </i>
   <i name="e_0_energy">    -96.02700272 </i>
  </energy>
  <time name="totalsc">    2.26    2.40</time>
 </calculation>
 <calculation>
  <scstep>
   <time name="diag">    0.03    0.03</time>
   <time name="diis">    0.13    0.14</time>
   <time name="orth">    0.00    0.00</time>
   <time name="total">    0.30    0.30</time>
   <energy>
    <i name="alphaZ">      9.76196320 </i>
    <i name="ewald">   1926.48636991 </i>
    <i name="hartreedc">  -3839.69279497 </i>
    <i name="XCdc">    184.29293790 </i>
    <i name="pawpsdc">   4407.75680581 </i>
    <i name="pawaedc">  -4420.82120447 </i>
    <i name="eentropy">     -0.00000000 </i>
    <i name="bandstr">   -627.68838903 </i>
    <i name="atom">   2263.87730879 </i>
    <i name="e_fr_energy">    -96.02700286 </i>
    <i name="e_wo_entrp">    -96.02700286 </i>
    <i name="e_0_energy">    -96.02700286 </i>
   </energy>
  </scstep>
  <scstep>
   <time name="diag">    0.03    0.03</time>
   <time name="diis">    0.10    0.10</time>
   <time name="orth">    0.00    0.00</time>
   <time name="total">    0.26    0.26</time>
   <energy>
    <i name="e_fr_energy">    -96.02700598 </i>
    <i name="e_wo_entrp">    -96.02700598 </i>
    <i name="e_0_energy">    -96.02700598 </i>
   </energy>
  </scstep>
  <scstep>
   <time name="diag">    0.03    0.03</time>
   <time name="diis">    0.09    0.09</time>
   <time name="orth">    0.00    0.00</time>
   <time name="total">    0.25    0.25</time>
   <energy>
    <i name="e_fr_energy">    -96.02700790 </i>
    <i name="e_wo_entrp">    -96.02700790 </i>
    <i name="e_0_energy">    -96.02700790 </i>
   </energy>
  </scstep>
  <scstep>
   <time name="diag">    0.02    0.03</time>
   <time name="diis">    0.08    0.08</time>
   <time name="orth">    0.00    0.00</time>
   <time name="total">    0.24    0.24</time>
   <energy>
    <i name="e_fr_energy">    -96.02700961 </i>
    <i name="e_wo_entrp">    -96.02700961 </i>
    <i name="e_0_energy">    -96.02700961 </i>
   </energy>
  </scstep>
  <scstep>
   <time name="diag">    0.03    0.03</time>
   <time name="diis">    0.07    0.07</time>
   <time name="orth">    0.00    0.00</time>
   <time name="total">    0.23    0.23</time>
   <energy>
    <i name="e_fr_energy">    -96.02701149 </i>
    <i name="e_wo_entrp">    -96.02701149 </i>
    <i name="e_0_energy">    -96.02701149 </i>
   </energy>
  </scstep>
  <scstep>
   <time name="diag">    0.03    0.03</time>
   <time name="diis">    0.06    0.06</time>
   <time name="orth">    0.00    0.00</time>
   <time name="total">    0.21    0.21</time>
   <energy>
    <i name="alphaZ">      9.76196320 </i>
    <i name="ewald">   1926.48636991 </i>
    <i name="hartreedc">  -3839.71557355 </i>
    <i name="XCdc">    184.29435891 </i>
    <i name="pawpsdc">   4408.03696249 </i>
    <i name="pawaedc">  -4421.10225978 </i>
    <i name="eentropy">     -0.00000000 </i>
    <i name="bandstr">   -627.66614273 </i>
    <i name="atom">   2263.87730879 </i>
    <i name="e_fr_energy">    -96.02701276 </i>
    <i name="e_wo_entrp">    -96.02701276 </i>
    <i name="e_0_energy">    -96.02701276 </i>
   </energy>
  </scstep>
  <structure>
   <crystal>
    <varray name="basis" >
     <v>       7.74550000       0.00000000       0.00000000 </v>
     <v>       0.00000000      11.75610000       0.00000000 </v>
     <v>       0.00000000       0.00000000      11.18000000 </v>
    </varray>
    <i name="volume">   1018.01583511 </i>
    <varray name="rec_basis" >
     <v>       0.12910722       0.00000000       0.00000000 </v>
     <v>       0.00000000       0.08506222       0.00000000 </v>
     <v>       0.00000000       0.00000000       0.08944544 </v>
    </varray>
   </crystal>
   <varray name="positions" >
    <v>       0.50756066       0.70911980       0.55054493 </v>
    <v>       0.50313277       0.58198114       0.54826674 </v>
    <v>       0.51638465       0.52037271       0.44339276 </v>
    <v>       0.51168186       0.40061385       0.44530782 </v>
    <v>       0.48248632       0.41238964       0.64751481 </v>
    <v>       0.53539701       0.57290592       0.33410136 </v>
    <v>       0.52501042       0.74510886       0.46103634 </v>
    <v>       0.38680868       0.74149572       0.58915379 </v>
    <v>       0.61310363       0.73768619       0.60883829 </v>
    <v>       0.56309502       0.37741128       0.26748134 </v>
    <v>       0.54264607       0.25445209       0.35243833 </v>
    <v>       0.46890353       0.36746751       0.73253374 </v>
    <v>       0.51945161       0.33865255       0.34254826 </v>
    <v>       0.49504799       0.34607992       0.55043559 </v>
    <v>       0.48527067       0.52563718       0.65355259 </v>
   </varray>
  </structure>
  <varray name="forces" >
   <v>      -0.00008367       0.00638227       0.00726713 </v>
   <v>       0.00528145      -0.01651660      -0.00470620 </v>
   <v>       0.00415463      -0.04634451      -0.02039243 </v>
   <v>       0.00045996       0.03177305       0.05625044 </v>
   <v>      -0.01838484      -0.05840672       0.04477159 </v>
   <v>       0.00573311       0.02705835       0.01205662 </v>
   <v>       0.00113787       0.03005337      -0.00098393 </v>
   <v>      -0.01943163       0.03285204       0.01738896 </v>
   <v>       0.01390334       0.03334007       0.01965520 </v>
   <v>      -0.03754513      -0.05506391      -0.00094792 </v>
   <v>      -0.00429273      -0.06070778      -0.03460726 </v>
   <v>      -0.00962800      -0.02534263       0.04705800 </v>
   <v>       0.06410112       0.02508421      -0.05682249 </v>
   <v>      -0.00787292       0.08277421      -0.04555514 </v>
   <v>       0.00246742      -0.00693541      -0.04043259 </v>
  </varray>
  <varray name="stress" >
   <v>      -0.36571676      -0.07143707      -0.04058833 </v>
   <v>      -0.07143707       0.07500521       0.29792205 </v>
   <v>      -0.04058833       0.29792205      -0.10281482 </v>
  </varray>
  <energy>
   <i name="e_fr_energy">    -96.02701276 </i>
   <i name="e_wo_entrp">    -96.02701276 </i>
   <i name="e_0_energy">    -96.02701276 </i>
  </energy>
  <time name="totalsc">    2.05    2.14</time>
 </calculation>
 <calculation>
  <scstep>
   <time name="diag">    0.03    0.03</time>
   <time name="diis">    0.13    0.13</time>
   <time name="orth">    0.00    0.00</time>
   <time name="total">    0.29    0.30</time>
   <energy>
    <i name="alphaZ">      9.76196320 </i>
    <i name="ewald">   1924.87724505 </i>
    <i name="hartreedc">  -3838.31580443 </i>
    <i name="XCdc">    184.27684776 </i>
    <i name="pawpsdc">   4408.04554406 </i>
    <i name="pawaedc">  -4421.11086937 </i>
    <i name="eentropy">     -0.00000000 </i>
    <i name="bandstr">   -627.43967347 </i>
    <i name="atom">   2263.87730879 </i>
    <i name="e_fr_energy">    -96.02743842 </i>
    <i name="e_wo_entrp">    -96.02743842 </i>
    <i name="e_0_energy">    -96.02743842 </i>
   </energy>
  </scstep>
  <scstep>
   <time name="diag">    0.03    0.03</time>
   <time name="diis">    0.13    0.13</time>
   <time name="orth">    0.00    0.00</time>
   <time name="total">    0.29    0.29</time>
   <energy>
    <i name="e_fr_energy">    -96.02761480 </i>
    <i name="e_wo_entrp">    -96.02761480 </i>
    <i name="e_0_energy">    -96.02761480 </i>
   </energy>
  </scstep>
  <scstep>
   <time name="diag">    0.03    0.03</time>
   <time name="diis">    0.13    0.13</time>
   <time name="orth">    0.00    0.00</time>
   <time name="total">    0.29    0.29</time>
   <energy>
    <i name="e_fr_energy">    -96.02764618 </i>
    <i name="e_wo_entrp">    -96.02764618 </i>
    <i name="e_0_energy">    -96.02764618 </i>
   </energy>
  </scstep>
  <scstep>
   <time name="diag">    0.03    0.03</time>
   <time name="diis">    0.12    0.13</time>
   <time name="orth">    0.00    0.00</time>
   <time name="total">    0.29    0.29</time>
   <energy>
    <i name="e_fr_energy">    -96.02764381 </i>
    <i name="e_wo_entrp">    -96.02764381 </i>
    <i name="e_0_energy">    -96.02764381 </i>
   </energy>
  </scstep>
  <scstep>
   <time name="diag">    0.03    0.03</time>
   <time name="diis">    0.09    0.09</time>
   <time name="orth">    0.00    0.00</time>
   <time name="total">    0.25    0.26</time>
   <energy>
    <i name="e_fr_energy">    -96.02764478 </i>
    <i name="e_wo_entrp">    -96.02764478 </i>
    <i name="e_0_energy">    -96.02764478 </i>
   </energy>
  </scstep>
  <scstep>
   <time name="diag">    0.03    0.03</time>
   <time name="diis">    0.09    0.09</time>
   <time name="orth">    0.00    0.00</time>
   <time name="total">    0.23    0.23</time>
   <energy>
    <i name="alphaZ">      9.76196320 </i>
    <i name="ewald">   1924.87724505 </i>
    <i name="hartreedc">  -3838.19451651 </i>
    <i name="XCdc">    184.27232405 </i>
    <i name="pawpsdc">   4404.54352423 </i>
    <i name="pawaedc">  -4417.60729578 </i>
    <i name="eentropy">     -0.00000000 </i>
    <i name="bandstr">   -627.55819890 </i>
    <i name="atom">   2263.87730879 </i>
    <i name="e_fr_energy">    -96.02764586 </i>
    <i name="e_wo_entrp">    -96.02764586 </i>
    <i name="e_0_energy">    -96.02764586 </i>
   </energy>
  </scstep>
  <structure>
   <crystal>
    <varray name="basis" >
     <v>       7.74550000       0.00000000       0.00000000 </v>
     <v>       0.00000000      11.75610000       0.00000000 </v>
     <v>       0.00000000       0.00000000      11.18000000 </v>
    </varray>
    <i name="volume">   1018.01583511 </i>
    <varray name="rec_basis" >
     <v>       0.12910722       0.00000000       0.00000000 </v>
     <v>       0.00000000       0.08506222       0.00000000 </v>
     <v>       0.00000000       0.00000000       0.08944544 </v>
    </varray>
   </crystal>
   <varray name="positions" >
    <v>       0.50755437       0.70922535       0.55058461 </v>
    <v>       0.50315665       0.58195490       0.54823736 </v>
    <v>       0.51641597       0.52034998       0.44330288 </v>
    <v>       0.51170118       0.40066273       0.44531973 </v>
    <v>       0.48240884       0.41227609       0.64767556 </v>
    <v>       0.53542111       0.57298214       0.33407838 </v>
    <v>       0.52502192       0.74518668       0.46099669 </v>
    <v>       0.38673430       0.74156273       0.58919841 </v>
    <v>       0.61315929       0.73775415       0.60889010 </v>
    <v>       0.56300576       0.37733663       0.26738745 </v>
    <v>       0.54262744       0.25429370       0.35235795 </v>
[...]
        <r>  0.0300  0.0001  0.0011  0.0000  0.0000  0.0000  0.0000  0.0000  0.0000 </r>
        <r>  0.0006  0.0001  0.0016  0.0001  0.0000  0.0000  0.0000  0.0000  0.0000 </r>
        <r>  0.0059  0.0366  0.0078  0.0000  0.0000  0.0000  0.0000  0.0000  0.0000 </r>
        <r>  0.0041  0.0348  0.0118  0.0000  0.0000  0.0000  0.0000  0.0000  0.0000 </r>
       </set>
       <set comment="band 20">
        <r>  0.0000  0.0000  0.0009  0.0328  0.0000  0.0000  0.0000  0.0000  0.0000 </r>
        <r>  0.0000  0.0000  0.0006  0.0230  0.0000  0.0000  0.0000  0.0000  0.0000 </r>
        <r>  0.0000  0.0001  0.0000  0.0000  0.0000  0.0000  0.0000  0.0000  0.0000 </r>
        <r>  0.0001  0.0006  0.0001  0.0607  0.0000  0.0000  0.0000  0.0000  0.0000 </r>
        <r>  0.0000  0.0001  0.0018  0.0720  0.0000  0.0000  0.0000  0.0000  0.0000 </r>
        <r>  0.0000  0.0000  0.0002  0.0052  0.0000  0.0000  0.0000  0.0000  0.0000 </r>
        <r>  0.0000  0.0000  0.0000  0.0003  0.0000  0.0000  0.0000  0.0000  0.0000 </r>
        <r>  0.0200  0.0001  0.0004  0.0003  0.0000  0.0000  0.0000  0.0000  0.0000 </r>
        <r>  0.0223  0.0001  0.0006  0.0002  0.0000  0.0000  0.0000  0.0000  0.0000 </r>
        <r>  0.0002  0.0000  0.0004  0.0021  0.0000  0.0000  0.0000  0.0000  0.0000 </r>
        <r>  0.0003  0.0001  0.0001  0.0022  0.0000  0.0000  0.0000  0.0000  0.0000 </r>
        <r>  0.0002  0.0000  0.0000  0.0008  0.0000  0.0000  0.0000  0.0000  0.0000 </r>
        <r>  0.0030  0.0004  0.0097  0.1588  0.0000  0.0000  0.0000  0.0000  0.0000 </r>
        <r>  0.0000  0.0001  0.0002  0.0010  0.0000  0.0000  0.0000  0.0000  0.0000 </r>
        <r>  0.0000  0.0000  0.0023  0.1558  0.0000  0.0000  0.0000  0.0000  0.0000 </r>
       </set>
       <set comment="band 21">
        <r>  0.0003  0.0006  0.0006  0.0000  0.0000  0.0000  0.0000  0.0000  0.0000 </r>
        <r>  0.0058  0.0015  0.0224  0.0003  0.0000  0.0000  0.0000  0.0000  0.0000 </r>
        <r>  0.0215  0.0020  0.0024  0.0001  0.0000  0.0000  0.0000  0.0000  0.0000 </r>
        <r>  0.0057  0.0151  0.0193  0.0001  0.0000  0.0000  0.0000  0.0000  0.0000 </r>
        <r>  0.0226  0.0026  0.0018  0.0001  0.0000  0.0000  0.0000  0.0000  0.0000 </r>
        <r>  0.0005  0.0091  0.0155  0.0004  0.0000  0.0000  0.0000  0.0000  0.0000 </r>
        <r>  0.0006  0.0000  0.0000  0.0000  0.0000  0.0000  0.0000  0.0000  0.0000 </r>
        <r>  0.0003  0.0000  0.0000  0.0000  0.0000  0.0000  0.0000  0.0000  0.0000 </r>
        <r>  0.0003  0.0000  0.0000  0.0000  0.0000  0.0000  0.0000  0.0000  0.0000 </r>
        <r>  0.0000  0.0000  0.0000  0.0000  0.0000  0.0000  0.0000  0.0000  0.0000 </r>
        <r>  0.0008  0.0000  0.0000  0.0000  0.0000  0.0000  0.0000  0.0000  0.0000 </r>
        <r>  0.0530  0.0003  0.0011  0.0000  0.0000  0.0000  0.0000  0.0000  0.0000 </r>
        <r>  0.0009  0.0005  0.0009  0.0000  0.0000  0.0000  0.0000  0.0000  0.0000 </r>
        <r>  0.0681  0.1852  0.0264  0.0007  0.0000  0.0000  0.0000  0.0000  0.0000 </r>
        <r>  0.0530  0.0006  0.1346  0.0010  0.0000  0.0000  0.0000  0.0000  0.0000 </r>
       </set>
       <set comment="band 22">
        <r>  0.0000  0.0000  0.0002  0.0195  0.0000  0.0000  0.0000  0.0000  0.0000 </r>
        <r>  0.0000  0.0001  0.0011  0.1008  0.0000  0.0000  0.0000  0.0000  0.0000 </r>
        <r>  0.0000  0.0000  0.0005  0.0503  0.0000  0.0000  0.0000  0.0000  0.0000 </r>
        <r>  0.0000  0.0000  0.0001  0.0001  0.0000  0.0000  0.0000  0.0000  0.0000 </r>
        <r>  0.0000  0.0000  0.0006  0.0441  0.0000  0.0000  0.0000  0.0000  0.0000 </r>
        <r>  0.0000  0.0001  0.0006  0.0486  0.0000  0.0000  0.0000  0.0000  0.0000 </r>
        <r>  0.0000  0.0000  0.0000  0.0002  0.0000  0.0000  0.0000  0.0000  0.0000 </r>
        <r>  0.0185  0.0000  0.0002  0.0003  0.0000  0.0000  0.0000  0.0000  0.0000 </r>
        <r>  0.0174  0.0000  0.0004  0.0001  0.0000  0.0000  0.0000  0.0000  0.0000 </r>
        <r>  0.0002  0.0000  0.0001  0.0008  0.0000  0.0000  0.0000  0.0000  0.0000 </r>
        <r>  0.0002  0.0001  0.0000  0.0007  0.0000  0.0000  0.0000  0.0000  0.0000 </r>
        <r>  0.0000  0.0000  0.0000  0.0006  0.0000  0.0000  0.0000  0.0000  0.0000 </r>
        <r>  0.0009  0.0000  0.0022  0.0485  0.0000  0.0000  0.0000  0.0000  0.0000 </r>
        <r>  0.0000  0.0000  0.0017  0.1950  0.0000  0.0000  0.0000  0.0000  0.0000 </r>
        <r>  0.0000  0.0001  0.0003  0.0430  0.0000  0.0000  0.0000  0.0000  0.0000 </r>
       </set>
       <set comment="band 23">
        <r>  0.0003  0.0013  0.0001  0.0005  0.0000  0.0000  0.0000  0.0000  0.0000 </r>
        <r>  0.0004  0.0001  0.0010  0.0150  0.0000  0.0000  0.0000  0.0000  0.0000 </r>
        <r>  0.0001  0.0016  0.0045  0.1065  0.0000  0.0000  0.0000  0.0000  0.0000 </r>
        <r>  0.0000  0.0005  0.0029  0.0259  0.0000  0.0000  0.0000  0.0000  0.0000 </r>
        <r>  0.0001  0.0026  0.0016  0.0280  0.0000  0.0000  0.0000  0.0000  0.0000 </r>
        <r>  0.0000  0.0009  0.0020  0.0492  0.0000  0.0000  0.0000  0.0000  0.0000 </r>
        <r>  0.0001  0.0000  0.0000  0.0000  0.0000  0.0000  0.0000  0.0000  0.0000 </r>
        <r>  0.0014  0.0000  0.0000  0.0000  0.0000  0.0000  0.0000  0.0000  0.0000 </r>
        <r>  0.0010  0.0000  0.0000  0.0000  0.0000  0.0000  0.0000  0.0000  0.0000 </r>
        <r>  0.0018  0.0001  0.0005  0.0028  0.0000  0.0000  0.0000  0.0000  0.0000 </r>
        <r>  0.0015  0.0001  0.0001  0.0031  0.0000  0.0000  0.0000  0.0000  0.0000 </r>
        <r>  0.0000  0.0000  0.0000  0.0005  0.0000  0.0000  0.0000  0.0000  0.0000 </r>
        <r>  0.0056  0.0000  0.0039  0.1710  0.0000  0.0000  0.0000  0.0000  0.0000 </r>
        <r>  0.0009  0.0186  0.0010  0.0220  0.0000  0.0000  0.0000  0.0000  0.0000 </r>
        <r>  0.0034  0.0126  0.0127  0.0897  0.0000  0.0000  0.0000  0.0000  0.0000 </r>
       </set>
       <set comment="band 24">
        <r>  0.0026  0.0113  0.0002  0.0001  0.0000  0.0000  0.0000  0.0000  0.0000 </r>
        <r>  0.0029  0.0004  0.0176  0.0007  0.0000  0.0000  0.0000  0.0000  0.0000 </r>
        <r>  0.0006  0.0235  0.0063  0.0130  0.0000  0.0000  0.0000  0.0000  0.0000 </r>
        <r>  0.0006  0.0072  0.0029  0.0034  0.0000  0.0000  0.0000  0.0000  0.0000 </r>
        <r>  0.0005  0.0262  0.0054  0.0035  0.0000  0.0000  0.0000  0.0000  0.0000 </r>
        <r>  0.0000  0.0108  0.0028  0.0057  0.0000  0.0000  0.0000  0.0000  0.0000 </r>
        <r>  0.0009  0.0001  0.0000  0.0000  0.0000  0.0000  0.0000  0.0000  0.0000 </r>
        <r>  0.0000  0.0001  0.0000  0.0000  0.0000  0.0000  0.0000  0.0000  0.0000 </r>
        <r>  0.0004  0.0001  0.0000  0.0000  0.0000  0.0000  0.0000  0.0000  0.0000 </r>
        <r>  0.0001  0.0000  0.0001  0.0005  0.0000  0.0000  0.0000  0.0000  0.0000 </r>
        <r>  0.0000  0.0002  0.0000  0.0004  0.0000  0.0000  0.0000  0.0000  0.0000 </r>
        <r>  0.0002  0.0000  0.0000  0.0000  0.0000  0.0000  0.0000  0.0000  0.0000 </r>
        <r>  0.0009  0.0006  0.0102  0.0214  0.0000  0.0000  0.0000  0.0000  0.0000 </r>
        <r>  0.0102  0.1743  0.0029  0.0026  0.0000  0.0000  0.0000  0.0000  0.0000 </r>
        <r>  0.0264  0.0900  0.1681  0.0039  0.0000  0.0000  0.0000  0.0000  0.0000 </r>
       </set>
       <set comment="band 25">
        <r>  0.0000  0.0000  0.0000  0.0003  0.0000  0.0000  0.0000  0.0000  0.0000 </r>
        <r>  0.0000  0.0001  0.0019  0.1772  0.0000  0.0000  0.0000  0.0000  0.0000 </r>
        <r>  0.0000  0.0001  0.0004  0.0328  0.0000  0.0000  0.0000  0.0000  0.0000 </r>
        <r>  0.0000  0.0000  0.0010  0.0806  0.0000  0.0000  0.0000  0.0000  0.0000 </r>
        <r>  0.0000  0.0000  0.0003  0.0213  0.0000  0.0000  0.0000  0.0000  0.0000 </r>
        <r>  0.0000  0.0000  0.0001  0.0054  0.0000  0.0000  0.0000  0.0000  0.0000 </r>
        <r>  0.0000  0.0000  0.0000  0.0000  0.0000  0.0000  0.0000  0.0000  0.0000 </r>
        <r>  0.0120  0.0002  0.0000  0.0000  0.0000  0.0000  0.0000  0.0000  0.0000 </r>
        <r>  0.0113  0.0002  0.0000  0.0000  0.0000  0.0000  0.0000  0.0000  0.0000 </r>
        <r>  0.0006  0.0000  0.0000  0.0006  0.0000  0.0000  0.0000  0.0000  0.0000 </r>
        <r>  0.0009  0.0000  0.0000  0.0012  0.0000  0.0000  0.0000  0.0000  0.0000 </r>
        <r>  0.0000  0.0000  0.0000  0.0006  0.0000  0.0000  0.0000  0.0000  0.0000 </r>
        <r>  0.0010  0.0003  0.0013  0.0236  0.0000  0.0000  0.0000  0.0000  0.0000 </r>
        <r>  0.0000  0.0000  0.0013  0.1292  0.0000  0.0000  0.0000  0.0000  0.0000 </r>
        <r>  0.0000  0.0000  0.0004  0.0380  0.0000  0.0000  0.0000  0.0000  0.0000 </r>
       </set>
       <set comment="band 26">
        <r>  0.0000  0.0000  0.0000  0.0004  0.0000  0.0000  0.0000  0.0000  0.0000 </r>
        <r>  0.0000  0.0000  0.0000  0.0004  0.0000  0.0000  0.0000  0.0000  0.0000 </r>
        <r>  0.0000  0.0000  0.0008  0.0890  0.0000  0.0000  0.0000  0.0000  0.0000 </r>
        <r>  0.0000  0.0000  0.0012  0.0904  0.0000  0.0000  0.0000  0.0000  0.0000 </r>
        <r>  0.0000  0.0001  0.0014  0.1679  0.0000  0.0000  0.0000  0.0000  0.0000 </r>
        <r>  0.0000  0.0001  0.0002  0.0197  0.0000  0.0000  0.0000  0.0000  0.0000 </r>
        <r>  0.0000  0.0000  0.0000  0.0001  0.0000  0.0000  0.0000  0.0000  0.0000 </r>
        <r>  0.0000  0.0000  0.0001  0.0000  0.0000  0.0000  0.0000  0.0000  0.0000 </r>
        <r>  0.0000  0.0000  0.0000  0.0000  0.0000  0.0000  0.0000  0.0000  0.0000 </r>
        <r>  0.0012  0.0000  0.0000  0.0012  0.0000  0.0000  0.0000  0.0000  0.0000 </r>
        <r>  0.0007  0.0000  0.0000  0.0007  0.0000  0.0000  0.0000  0.0000  0.0000 </r>
        <r>  0.0000  0.0000  0.0001  0.0052  0.0000  0.0000  0.0000  0.0000  0.0000 </r>
        <r>  0.0016  0.0000  0.0023  0.0228  0.0000  0.0000  0.0000  0.0000  0.0000 </r>
        <r>  0.0000  0.0000  0.0001  0.0166  0.0000  0.0000  0.0000  0.0000  0.0000 </r>
        <r>  0.0000  0.0001  0.0014  0.1203  0.0000  0.0000  0.0000  0.0000  0.0000 </r>
       </set>
       <set comment="band 27">
        <r>  0.0082  0.0004  0.0001  0.0000  0.0000  0.0000  0.0000  0.0000  0.0000 </r>
        <r>  0.0002  0.0007  0.0001  0.0003  0.0000  0.0000  0.0000  0.0000  0.0000 </r>
        <r>  0.0000  0.0032  0.0061  0.0000  0.0000  0.0000  0.0000  0.0000  0.0000 </r>
        <r>  0.0000  0.0017  0.0010  0.0010  0.0000  0.0000  0.0000  0.0000  0.0000 </r>
        <r>  0.0000  0.0002  0.0028  0.0006  0.0000  0.0000  0.0000  0.0000  0.0000 </r>
        <r>  0.0053  0.0009  0.0007  0.0000  0.0000  0.0000  0.0000  0.0000  0.0000 </r>
        <r>  0.0001  0.0001  0.0008  0.0000  0.0000  0.0000  0.0000  0.0000  0.0000 </r>
        <r>  0.0000  0.0000  0.0001  0.0005  0.0000  0.0000  0.0000  0.0000  0.0000 </r>
        <r>  0.0002  0.0000  0.0002  0.0004  0.0000  0.0000  0.0000  0.0000  0.0000 </r>
        <r>  0.0005  0.0011  0.0026  0.0002  0.0000  0.0000  0.0000  0.0000  0.0000 </r>
        <r>  0.0009  0.0030  0.0001  0.0000  0.0000  0.0000  0.0000  0.0000  0.0000 </r>
        <r>  0.0000  0.0001  0.0002  0.0000  0.0000  0.0000  0.0000  0.0000  0.0000 </r>
        <r>  0.0182  0.0006  0.0024  0.0028  0.0000  0.0000  0.0000  0.0000  0.0000 </r>
        <r>  0.0022  0.0032  0.0001  0.0000  0.0000  0.0000  0.0000  0.0000  0.0000 </r>
        <r>  0.0006  0.0000  0.0011  0.0015  0.0000  0.0000  0.0000  0.0000  0.0000 </r>
       </set>
       <set comment="band 28">
        <r>  0.0179  0.0059  0.0012  0.0000  0.0000  0.0000  0.0000  0.0000  0.0000 </r>
        <r>  0.0000  0.0005  0.0002  0.0000  0.0000  0.0000  0.0000  0.0000  0.0000 </r>
        <r>  0.0003  0.0011  0.0004  0.0000  0.0000  0.0000  0.0000  0.0000  0.0000 </r>
        <r>  0.0007  0.0007  0.0009  0.0001  0.0000  0.0000  0.0000  0.0000  0.0000 </r>
        <r>  0.0000  0.0005  0.0003  0.0003  0.0000  0.0000  0.0000  0.0000  0.0000 </r>
        <r>  0.0000  0.0018  0.0003  0.0000  0.0000  0.0000  0.0000  0.0000  0.0000 </r>
        <r>  0.0000  0.0000  0.0012  0.0000  0.0000  0.0000  0.0000  0.0000  0.0000 </r>
        <r>  0.0001  0.0001  0.0002  0.0027  0.0000  0.0000  0.0000  0.0000  0.0000 </r>
        <r>  0.0000  0.0000  0.0006  0.0021  0.0000  0.0000  0.0000  0.0000  0.0000 </r>
        <r>  0.0010  0.0009  0.0034  0.0004  0.0000  0.0000  0.0000  0.0000  0.0000 </r>
        <r>  0.0006  0.0028  0.0001  0.0000  0.0000  0.0000  0.0000  0.0000  0.0000 </r>
        <r>  0.0000  0.0000  0.0000  0.0000  0.0000  0.0000  0.0000  0.0000  0.0000 </r>
        <r>  0.0157  0.0010  0.0059  0.0020  0.0000  0.0000  0.0000  0.0000  0.0000 </r>
        <r>  0.0003  0.0009  0.0006  0.0000  0.0000  0.0000  0.0000  0.0000  0.0000 </r>
        <r>  0.0019  0.0008  0.0007  0.0001  0.0000  0.0000  0.0000  0.0000  0.0000 </r>
       </set>
       <set comment="band 29">
        <r>  0.0006  0.0008  0.0010  0.0000  0.0000  0.0000  0.0000  0.0000  0.0000 </r>
        <r>  0.0016  0.0000  0.0019  0.0000  0.0000  0.0000  0.0000  0.0000  0.0000 </r>
        <r>  0.0028  0.0011  0.0097  0.0000  0.0000  0.0000  0.0000  0.0000  0.0000 </r>
        <r>  0.0005  0.0027  0.0000  0.0000  0.0000  0.0000  0.0000  0.0000  0.0000 </r>
        <r>  0.0029  0.0010  0.0017  0.0000  0.0000  0.0000  0.0000  0.0000  0.0000 </r>
        <r>  0.0097  0.0018  0.0027  0.0000  0.0000  0.0000  0.0000  0.0000  0.0000 </r>
        <r>  0.0000  0.0000  0.0002  0.0000  0.0000  0.0000  0.0000  0.0000  0.0000 </r>
        <r>  0.0005  0.0000  0.0000  0.0000  0.0000  0.0000  0.0000  0.0000  0.0000 </r>
        <r>  0.0003  0.0001  0.0000  0.0000  0.0000  0.0000  0.0000  0.0000  0.0000 </r>
        <r>  0.0004  0.0002  0.0016  0.0003  0.0000  0.0000  0.0000  0.0000  0.0000 </r>
        <r>  0.0000  0.0016  0.0000  0.0001  0.0000  0.0000  0.0000  0.0000  0.0000 </r>
        <r>  0.0000  0.0003  0.0008  0.0000  0.0000  0.0000  0.0000  0.0000  0.0000 </r>
        <r>  0.0010  0.0146  0.0010  0.0002  0.0000  0.0000  0.0000  0.0000  0.0000 </r>
        <r>  0.0001  0.0006  0.0001  0.0000  0.0000  0.0000  0.0000  0.0000  0.0000 </r>
        <r>  0.0001  0.0000  0.0020  0.0000  0.0000  0.0000  0.0000  0.0000  0.0000 </r>
       </set>
       <set comment="band 30">
        <r>  0.0038  0.0001  0.0040  0.0000  0.0000  0.0000  0.0000  0.0000  0.0000 </r>
        <r>  0.0013  0.0008  0.0001  0.0001  0.0000  0.0000  0.0000  0.0000  0.0000 </r>
        <r>  0.0011  0.0024  0.0017  0.0002  0.0000  0.0000  0.0000  0.0000  0.0000 </r>
        <r>  0.0005  0.0003  0.0001  0.0000  0.0000  0.0000  0.0000  0.0000  0.0000 </r>
        <r>  0.0087  0.0020  0.0068  0.0001  0.0000  0.0000  0.0000  0.0000  0.0000 </r>
        <r>  0.0014  0.0001  0.0029  0.0000  0.0000  0.0000  0.0000  0.0000  0.0000 </r>
        <r>  0.0002  0.0006  0.0009  0.0000  0.0000  0.0000  0.0000  0.0000  0.0000 </r>
        <r>  0.0000  0.0001  0.0000  0.0000  0.0000  0.0000  0.0000  0.0000  0.0000 </r>
        <r>  0.0000  0.0001  0.0000  0.0000  0.0000  0.0000  0.0000  0.0000  0.0000 </r>
        <r>  0.0001  0.0001  0.0000  0.0000  0.0000  0.0000  0.0000  0.0000  0.0000 </r>
        <r>  0.0013  0.0028  0.0000  0.0000  0.0000  0.0000  0.0000  0.0000  0.0000 </r>
        <r>  0.0002  0.0008  0.0027  0.0000  0.0000  0.0000  0.0000  0.0000  0.0000 </r>
        <r>  0.0038  0.0044  0.0010  0.0003  0.0000  0.0000  0.0000  0.0000  0.0000 </r>
        <r>  0.0000  0.0019  0.0009  0.0000  0.0000  0.0000  0.0000  0.0000  0.0000 </r>
        <r>  0.0007  0.0006  0.0001  0.0001  0.0000  0.0000  0.0000  0.0000  0.0000 </r>
       </set>
       <set comment="band 31">
        <r>  0.0004  0.0019  0.0002  0.0000  0.0000  0.0000  0.0000  0.0000  0.0000 </r>
        <r>  0.0010  0.0001  0.0001  0.0005  0.0000  0.0000  0.0000  0.0000  0.0000 </r>
        <r>  0.0013  0.0015  0.0001  0.0005  0.0000  0.0000  0.0000  0.0000  0.0000 </r>
        <r>  0.0008  0.0000  0.0001  0.0008  0.0000  0.0000  0.0000  0.0000  0.0000 </r>
        <r>  0.0002  0.0000  0.0003  0.0000  0.0000  0.0000  0.0000  0.0000  0.0000 </r>
        <r>  0.0001  0.0002  0.0012  0.0001  0.0000  0.0000  0.0000  0.0000  0.0000 </r>
        <r>  0.0001  0.0000  0.0003  0.0000  0.0000  0.0000  0.0000  0.0000  0.0000 </r>
        <r>  0.0000  0.0000  0.0001  0.0000  0.0000  0.0000  0.0000  0.0000  0.0000 </r>
        <r>  0.0001  0.0000  0.0001  0.0000  0.0000  0.0000  0.0000  0.0000  0.0000 </r>
        <r>  0.0001  0.0000  0.0008  0.0000  0.0000  0.0000  0.0000  0.0000  0.0000 </r>
        <r>  0.0001  0.0009  0.0000  0.0001  0.0000  0.0000  0.0000  0.0000  0.0000 </r>
        <r>  0.0001  0.0000  0.0000  0.0000  0.0000  0.0000  0.0000  0.0000  0.0000 </r>
        <r>  0.0004  0.0035  0.0032  0.0000  0.0000  0.0000  0.0000  0.0000  0.0000 </r>
        <r>  0.0048  0.0017  0.0003  0.0002  0.0000  0.0000  0.0000  0.0000  0.0000 </r>
        <r>  0.0001  0.0015  0.0004  0.0004  0.0000  0.0000  0.0000  0.0000  0.0000 </r>
       </set>
       <set comment="band 32">
        <r>  0.0089  0.0005  0.0053  0.0002  0.0000  0.0000  0.0000  0.0000  0.0000 </r>
        <r>  0.0005  0.0011  0.0003  0.0001  0.0000  0.0000  0.0000  0.0000  0.0000 </r>
        <r>  0.0001  0.0002  0.0038  0.0000  0.0000  0.0000  0.0000  0.0000  0.0000 </r>
        <r>  0.0013  0.0000  0.0022  0.0002  0.0000  0.0000  0.0000  0.0000  0.0000 </r>
        <r>  0.0000  0.0001  0.0014  0.0001  0.0000  0.0000  0.0000  0.0000  0.0000 </r>
        <r>  0.0005  0.0036  0.0013  0.0000  0.0000  0.0000  0.0000  0.0000  0.0000 </r>
        <r>  0.0002  0.0000  0.0000  0.0000  0.0000  0.0000  0.0000  0.0000  0.0000 </r>
        <r>  0.0002  0.0005  0.0001  0.0017  0.0000  0.0000  0.0000  0.0000  0.0000 </r>
        <r>  0.0001  0.0004  0.0002  0.0013  0.0000  0.0000  0.0000  0.0000  0.0000 </r>
        <r>  0.0017  0.0009  0.0031  0.0002  0.0000  0.0000  0.0000  0.0000  0.0000 </r>
        <r>  0.0031  0.0015  0.0001  0.0000  0.0000  0.0000  0.0000  0.0000  0.0000 </r>
        <r>  0.0004  0.0000  0.0001  0.0000  0.0000  0.0000  0.0000  0.0000  0.0000 </r>
        <r>  0.0112  0.0000  0.0031  0.0017  0.0000  0.0000  0.0000  0.0000  0.0000 </r>
        <r>  0.0002  0.0009  0.0000  0.0000  0.0000  0.0000  0.0000  0.0000  0.0000 </r>
        <r>  0.0001  0.0000  0.0016  0.0004  0.0000  0.0000  0.0000  0.0000  0.0000 </r>
       </set>
      </set>
     </set>
    </set>
   </array>
  </projected>
 </calculation>
 <structure name="finalpos" >
  <crystal>
   <varray name="basis" >
    <v>       7.74550000       0.00000000       0.00000000 </v>
    <v>       0.00000000      11.75610000       0.00000000 </v>
    <v>       0.00000000       0.00000000      11.18000000 </v>
   </varray>
   <i name="volume">   1018.01583511 </i>
   <varray name="rec_basis" >
    <v>       0.12910722       0.00000000       0.00000000 </v>
    <v>       0.00000000       0.08506222       0.00000000 </v>
    <v>       0.00000000       0.00000000       0.08944544 </v>
   </varray>
  </crystal>
  <varray name="positions" >
   <v>       0.50754907       0.70929817       0.55060954 </v>
   <v>       0.50318367       0.58190929       0.54823612 </v>
   <v>       0.51645886       0.52036230       0.44323973 </v>
   <v>       0.51175356       0.40067579       0.44528865 </v>
   <v>       0.48231691       0.41217685       0.64776480 </v>
   <v>       0.53544138       0.57309403       0.33406092 </v>
   <v>       0.52502934       0.74531084       0.46099871 </v>
   <v>       0.38663755       0.74168239       0.58926856 </v>
   <v>       0.61322892       0.73787841       0.60896799 </v>
   <v>       0.56287365       0.37721138       0.26719900 </v>
   <v>       0.54256565       0.25415849       0.35219507 </v>
   <v>       0.46879489       0.36724622       0.73294132 </v>
   <v>       0.51996910       0.33853761       0.34247225 </v>
   <v>       0.49491971       0.34632338       0.55039420 </v>
   <v>       0.48525864       0.52550922       0.65350984 </v>
  </varray>
 </structure>
</modeling>
