  15  15   1   0
  0.6786772E+02  0.7745500E-09  0.1175610E-08  0.1118000E-08  0.1000000E-14
   500.000000000000     
  CAR 
 Cluster                                 
      3.72457461    -31.68770238  301     -4.82496940      1.00000000
    -31.688  0.0000E+00  0.0000E+00
    -31.570  0.0000E+00  0.0000E+00
    -31.452  0.0000E+00  0.0000E+00
    -31.334  0.0000E+00  0.0000E+00
    -31.216  0.0000E+00  0.0000E+00
    -31.097  0.0000E+00  0.0000E+00
    -30.979 -0.2099E-31 -0.2380E-32
    -30.861 -0.1790E-23 -0.2035E-24
    -30.743 -0.1268E-16 -0.1448E-17
    -30.625 -0.7146E-11 -0.8208E-12
    -30.507 -0.3238E-06 -0.3744E-07
    -30.389 -0.1030E-02 -0.1198E-03
    -30.271 -0.1773E+00 -0.2083E-01
    -30.153  0.6137E+00  0.5080E-01
    -30.035  0.1369E+02  0.1653E+01
    -29.917  0.3359E+01  0.2046E+01
    -29.799 -0.3912E+00  0.2001E+01
    -29.681 -0.5704E-02  0.2000E+01
    -29.563 -0.3827E-05  0.2000E+01
    -29.445 -0.1718E-09  0.2000E+01
    -29.327 -0.3139E-15  0.2000E+01
    -29.209  0.0000E+00  0.2000E+01
    -29.091  0.0000E+00  0.2000E+01
    -28.973  0.0000E+00  0.2000E+01
    -28.855  0.0000E+00  0.2000E+01
    -28.737  0.0000E+00  0.2000E+01
    -28.619  0.0000E+00  0.2000E+01
    -28.501  0.0000E+00  0.2000E+01
    -28.383  0.0000E+00  0.2000E+01
    -28.265  0.0000E+00  0.2000E+01
    -28.146  0.0000E+00  0.2000E+01
    -28.028  0.0000E+00  0.2000E+01
    -27.910  0.0000E+00  0.2000E+01
    -27.792  0.0000E+00  0.2000E+01
    -27.674  0.0000E+00  0.2000E+01
    -27.556  0.0000E+00  0.2000E+01
    -27.438  0.0000E+00  0.2000E+01
    -27.320  0.0000E+00  0.2000E+01
    -27.202  0.0000E+00  0.2000E+01
    -27.084  0.0000E+00  0.2000E+01
    -26.966  0.0000E+00  0.2000E+01
    -26.848  0.0000E+00  0.2000E+01
    -26.730  0.0000E+00  0.2000E+01
    -26.612  0.0000E+00  0.2000E+01
    -26.494  0.0000E+00  0.2000E+01
    -26.376  0.0000E+00  0.2000E+01
    -26.258  0.0000E+00  0.2000E+01
    -26.140 -0.2882E-32  0.2000E+01
    -26.022 -0.1997E-24  0.2000E+01
    -25.904 -0.1009E-17  0.2000E+01
    -25.786 -0.3576E-12  0.2000E+01
    -25.668 -0.9357E-08  0.2000E+01
    -25.550 -0.1721E-04  0.2000E+01
    -25.432 -0.1951E-02  0.2000E+01
    -25.313  0.3610E-02  0.2000E+01
    -25.195  0.1424E+00  0.2016E+01
    -25.077  0.1874E+00  0.2038E+01
    -24.959  0.4215E+00  0.2085E+01
    -24.841  0.8009E+00  0.2177E+01
    -24.723  0.9891E+00  0.2291E+01
    -24.605  0.1052E+01  0.2412E+01
    -24.487  0.1168E+01  0.2547E+01
    -24.369  0.1362E+01  0.2705E+01
    -24.251  0.1397E+01  0.2868E+01
    -24.133  0.1716E+01  0.3069E+01
    -24.015  0.1277E+01  0.3218E+01
    -23.897  0.9069E+00  0.3325E+01
    -23.779  0.1042E+01  0.3448E+01
    -23.661  0.1134E+01  0.3582E+01
    -23.543  0.1355E+01  0.3741E+01
    -23.425  0.1590E+01  0.3929E+01
    -23.307  0.1474E+01  0.4103E+01
    -23.189  0.1498E+01  0.4278E+01
    -23.071  0.1884E+01  0.4495E+01
    -22.953  0.1942E+01  0.4721E+01
    -22.835  0.1376E+01  0.4881E+01
    -22.717  0.1066E+01  0.5006E+01
    -22.599  0.1101E+01  0.5135E+01
    -22.481  0.1055E+01  0.5259E+01
    -22.362  0.1329E+01  0.5416E+01
    -22.244  0.1402E+01  0.5582E+01
    -22.126  0.1637E+01  0.5778E+01
    -22.008  0.1016E+01  0.5899E+01
    -21.890  0.6668E+00  0.5977E+01
    -21.772  0.4869E+00  0.6033E+01
    -21.654  0.6869E+00  0.6112E+01
    -21.536  0.1000E+01  0.6228E+01
    -21.418  0.9828E+00  0.6341E+01
    -21.300  0.1326E+01  0.6494E+01
    -21.182  0.1289E+01  0.6643E+01
    -21.064  0.1585E+01  0.6828E+01
    -20.946  0.2201E+01  0.7085E+01
    -20.828  0.1781E+01  0.7294E+01
    -20.710  0.1116E+01  0.7426E+01
    -20.592  0.1180E+01  0.7567E+01
    -20.474  0.1187E+01  0.7708E+01
    -20.356  0.9488E+00  0.7822E+01
    -20.238  0.6718E+00  0.7902E+01
    -20.120  0.4060E+00  0.7951E+01
    -20.002  0.2887E+00  0.7985E+01
    -19.884  0.1330E+00  0.8001E+01
    -19.766  0.1458E+00  0.8018E+01
    -19.648  0.1097E+00  0.8030E+01
    -19.529  0.2421E+00  0.8058E+01
    -19.411  0.4096E+00  0.8105E+01
    -19.293  0.7882E+00  0.8195E+01
    -19.175  0.1640E+01  0.8385E+01
    -19.057  0.1658E+01  0.8577E+01
    -18.939  0.1817E+01  0.8787E+01
    -18.821  0.2251E+01  0.9050E+01
    -18.703  0.2177E+01  0.9305E+01
    -18.585  0.1572E+01  0.9491E+01
    -18.467  0.1634E+01  0.9686E+01
    -18.349  0.1260E+01  0.9835E+01
    -18.231  0.1105E+01  0.9967E+01
    -18.113  0.5926E+00  0.1004E+02
    -17.995  0.3661E-01  0.1004E+02
    -17.877  0.4070E-01  0.1005E+02
    -17.759  0.2703E+00  0.1008E+02
    -17.641  0.1420E+01  0.1024E+02
    -17.523  0.1808E+01  0.1045E+02
    -17.405  0.2010E+01  0.1068E+02
    -17.287  0.2478E+01  0.1097E+02
    -17.169  0.2550E+01  0.1127E+02
    -17.051  0.2133E+01  0.1152E+02
    -16.933  0.1328E+01  0.1168E+02
    -16.815  0.1018E+01  0.1180E+02
    -16.697  0.8133E+00  0.1190E+02
    -16.578  0.6630E+00  0.1198E+02
    -16.460  0.1975E+00  0.1200E+02
    -16.342 -0.1155E-01  0.1200E+02
    -16.224  0.1610E-01  0.1200E+02
    -16.106  0.1303E+00  0.1202E+02
    -15.988  0.3278E+00  0.1205E+02
    -15.870  0.1144E+01  0.1219E+02
    -15.752  0.1562E+01  0.1237E+02
    -15.634  0.1961E+01  0.1259E+02
    -15.516  0.2638E+01  0.1290E+02
    -15.398  0.3251E+01  0.1328E+02
    -15.280  0.2798E+01  0.1361E+02
    -15.162  0.3069E+01  0.1397E+02
    -15.044  0.3632E+01  0.1439E+02
    -14.926  0.3141E+01  0.1476E+02
    -14.808  0.2720E+01  0.1508E+02
    -14.690  0.2437E+01  0.1537E+02
    -14.572  0.1904E+01  0.1559E+02
    -14.454  0.1445E+01  0.1576E+02
    -14.336  0.1177E+01  0.1590E+02
    -14.218  0.4945E+00  0.1596E+02
    -14.100  0.1696E+00  0.1598E+02
    -13.982  0.2495E+00  0.1601E+02
    -13.864  0.4676E+00  0.1607E+02
    -13.745  0.1027E+01  0.1618E+02
    -13.627  0.1505E+01  0.1636E+02
    -13.509  0.2041E+01  0.1660E+02
    -13.391  0.2443E+01  0.1688E+02
    -13.273  0.3152E+01  0.1725E+02
    -13.155  0.2490E+01  0.1754E+02
    -13.037  0.2359E+01  0.1782E+02
    -12.919  0.1974E+01  0.1805E+02
    -12.801  0.2183E+01  0.1831E+02
    -12.683  0.2820E+01  0.1863E+02
    -12.565  0.5115E+01  0.1923E+02
    -12.447  0.5169E+01  0.1984E+02
    -12.329  0.5221E+01  0.2046E+02
    -12.211  0.5002E+01  0.2104E+02
    -12.093  0.5111E+01  0.2164E+02
    -11.975  0.2500E+01  0.2193E+02
    -11.857  0.7726E+00  0.2202E+02
    -11.739  0.1056E+01  0.2214E+02
    -11.621  0.1542E+01  0.2232E+02
    -11.503  0.2587E+01  0.2263E+02
    -11.385  0.3114E+01  0.2299E+02
    -11.267  0.3240E+01  0.2337E+02
    -11.149  0.2987E+01  0.2372E+02
    -11.031  0.3205E+01  0.2410E+02
    -10.912  0.4607E+01  0.2464E+02
    -10.794  0.5707E+01  0.2531E+02
    -10.676  0.4858E+01  0.2588E+02
    -10.558  0.3136E+01  0.2624E+02
    -10.440  0.2268E+01  0.2650E+02
    -10.322  0.3328E+01  0.2689E+02
    -10.204  0.3094E+01  0.2725E+02
    -10.086  0.2873E+01  0.2759E+02
     -9.968  0.2206E+01  0.2785E+02
     -9.850  0.2503E+01  0.2815E+02
     -9.732  0.2839E+01  0.2848E+02
     -9.614  0.4726E+01  0.2903E+02
     -9.496  0.5865E+01  0.2972E+02
     -9.378  0.6215E+01  0.3045E+02
     -9.260  0.7626E+01  0.3134E+02
     -9.142  0.8225E+01  0.3230E+02
     -9.024  0.7970E+01  0.3323E+02
     -8.906  0.7149E+01  0.3407E+02
     -8.788  0.7275E+01  0.3492E+02
     -8.670  0.7862E+01  0.3584E+02
     -8.552  0.7497E+01  0.3671E+02
     -8.434  0.4599E+01  0.3725E+02
     -8.316  0.2778E+01  0.3758E+02
     -8.198  0.2082E+01  0.3783E+02
     -8.080  0.1325E+01  0.3798E+02
     -7.961  0.1647E+01  0.3818E+02
     -7.843  0.3377E+01  0.3857E+02
     -7.725  0.3235E+01  0.3894E+02
     -7.607  0.3021E+01  0.3930E+02
     -7.489  0.2546E+01  0.3960E+02
     -7.371  0.1845E+01  0.3982E+02
     -7.253  0.1001E+01  0.3994E+02
     -7.135  0.4696E+00  0.3999E+02
     -7.017  0.1952E+00  0.4002E+02
     -6.899  0.5003E-01  0.4002E+02
     -6.781  0.4182E+00  0.4007E+02
     -6.663  0.1331E+01  0.4023E+02
     -6.545  0.2805E+01  0.4055E+02
     -6.427  0.5114E+01  0.4115E+02
     -6.309  0.4974E+01  0.4174E+02
     -6.191  0.4935E+01  0.4231E+02
     -6.073  0.4733E+01  0.4286E+02
     -5.955  0.3533E+01  0.4327E+02
     -5.837  0.3052E+01  0.4363E+02
     -5.719  0.1932E+01  0.4386E+02
     -5.601  0.1030E+01  0.4398E+02
     -5.483  0.6966E+00  0.4407E+02
     -5.365  0.1270E+01  0.4422E+02
     -5.247  0.1808E+01  0.4443E+02
     -5.128  0.3141E+01  0.4479E+02
     -5.010  0.6936E+01  0.4560E+02
     -4.892  0.8390E+01  0.4658E+02
     -4.774  0.7628E+01  0.4748E+02
     -4.656  0.3136E+01  0.4785E+02
     -4.538  0.1124E+01  0.4798E+02
     -4.420  0.1837E+00  0.4800E+02
     -4.302 -0.1586E-01  0.4800E+02
     -4.184 -0.1280E-02  0.4800E+02
     -4.066 -0.3994E-05  0.4800E+02
     -3.948 -0.7114E-09  0.4800E+02
     -3.830 -0.7324E-14  0.4800E+02
     -3.712  0.0000E+00  0.4800E+02
     -3.594  0.0000E+00  0.4800E+02
     -3.476  0.0000E+00  0.4800E+02
     -3.358  0.0000E+00  0.4800E+02
     -3.240  0.0000E+00  0.4800E+02
     -3.122  0.0000E+00  0.4800E+02
     -3.004  0.0000E+00  0.4800E+02
     -2.886  0.0000E+00  0.4800E+02
     -2.768  0.0000E+00  0.4800E+02
     -2.650  0.0000E+00  0.4800E+02
     -2.532 -0.8321E-29  0.4800E+02
     -2.414 -0.4760E-21  0.4800E+02
     -2.296 -0.1375E-14  0.4800E+02
     -2.177 -0.2068E-09  0.4800E+02
     -2.059 -0.1537E-05  0.4800E+02
     -1.941 -0.5060E-03  0.4800E+02
     -1.823 -0.9301E-03  0.4800E+02
     -1.705  0.6911E-01  0.4801E+02
     -1.587  0.6640E-01  0.4802E+02
     -1.469  0.7788E-01  0.4803E+02
     -1.351  0.3999E+00  0.4807E+02
     -1.233  0.1128E+01  0.4821E+02
     -1.115  0.1611E+01  0.4839E+02
     -0.997  0.3456E+01  0.4880E+02
     -0.879  0.4604E+01  0.4934E+02
     -0.761  0.5677E+01  0.5001E+02
     -0.643  0.5746E+01  0.5068E+02
     -0.525  0.4828E+01  0.5124E+02
     -0.407  0.3346E+01  0.5164E+02
     -0.289  0.4500E+01  0.5217E+02
     -0.171  0.6557E+01  0.5293E+02
     -0.053  0.5525E+01  0.5358E+02
      0.065  0.2902E+01  0.5391E+02
      0.183  0.9901E+00  0.5403E+02
      0.301  0.5170E+00  0.5409E+02
      0.419  0.5477E+00  0.5415E+02
      0.537  0.1308E+01  0.5431E+02
      0.656  0.3443E+01  0.5472E+02
      0.774  0.5829E+01  0.5540E+02
      0.892  0.7386E+01  0.5627E+02
      1.010  0.6917E+01  0.5708E+02
      1.128  0.7801E+01  0.5799E+02
      1.246  0.7419E+01  0.5886E+02
      1.364  0.5650E+01  0.5952E+02
      1.482  0.5424E+01  0.6015E+02
      1.600  0.4565E+01  0.6068E+02
      1.718  0.3439E+01  0.6109E+02
      1.836  0.3124E+01  0.6145E+02
      1.954  0.2080E+01  0.6169E+02
      2.072  0.5194E+01  0.6230E+02
      2.190  0.1415E+02  0.6395E+02
      2.308  0.5788E+00  0.6402E+02
      2.426 -0.1804E+00  0.6400E+02
      2.544 -0.1041E-02  0.6400E+02
      2.662 -0.3269E-06  0.6400E+02
      2.780 -0.7206E-11  0.6400E+02
      2.898  0.0000E+00  0.6400E+02
      3.016  0.0000E+00  0.6400E+02
      3.134  0.0000E+00  0.6400E+02
      3.252  0.0000E+00  0.6400E+02
      3.370  0.0000E+00  0.6400E+02
      3.488  0.0000E+00  0.6400E+02
      3.607  0.0000E+00  0.6400E+02
      3.725  0.0000E+00  0.6400E+02
      3.83697748    -31.65381327  301     -4.82186889      1.00000000
    -31.654  0.0000E+00  0.0000E+00
    -31.536  0.0000E+00  0.0000E+00
    -31.417  0.0000E+00  0.0000E+00
    -31.299  0.0000E+00  0.0000E+00
    -31.181  0.0000E+00  0.0000E+00
    -31.062  0.0000E+00  0.0000E+00
    -30.944 -0.5163E-36 -0.6108E-37
    -30.826 -0.2124E-27 -0.2513E-28
    -30.707 -0.5198E-20 -0.6149E-21
    -30.589 -0.7254E-14 -0.8581E-15
    -30.471 -0.5946E-09 -0.7034E-10
    -30.352 -0.2665E-05 -0.3154E-06
    -30.234 -0.5485E-03 -0.6521E-04
    -30.116  0.1849E-02  0.1535E-03
    -29.998  0.4544E-01  0.5529E-02
    -29.879  0.1088E-01  0.6816E-02
    -29.761 -0.1250E-02  0.6669E-02
    -29.643 -0.1570E-04  0.6667E-02
    -29.524 -0.7884E-08  0.6667E-02
    -29.406 -0.2110E-12  0.6667E-02
    -29.288  0.0000E+00  0.6667E-02
    -29.169  0.0000E+00  0.6667E-02
    -29.051  0.0000E+00  0.6667E-02
    -28.933  0.0000E+00  0.6667E-02
    -28.815  0.0000E+00  0.6667E-02
    -28.696  0.0000E+00  0.6667E-02
    -28.578  0.0000E+00  0.6667E-02
    -28.460  0.0000E+00  0.6667E-02
    -28.341  0.0000E+00  0.6667E-02
    -28.223  0.0000E+00  0.6667E-02
    -28.105  0.0000E+00  0.6667E-02
    -27.986  0.0000E+00  0.6667E-02
    -27.868  0.0000E+00  0.6667E-02
    -27.750  0.0000E+00  0.6667E-02
    -27.632  0.0000E+00  0.6667E-02
    -27.513  0.0000E+00  0.6667E-02
    -27.395  0.0000E+00  0.6667E-02
    -27.277  0.0000E+00  0.6667E-02
    -27.158  0.0000E+00  0.6667E-02
    -27.040  0.0000E+00  0.6667E-02
    -26.922  0.0000E+00  0.6667E-02
    -26.803  0.0000E+00  0.6667E-02
    -26.685  0.0000E+00  0.6667E-02
    -26.567  0.0000E+00  0.6667E-02
    -26.448  0.0000E+00  0.6667E-02
    -26.330  0.0000E+00  0.6667E-02
    -26.212  0.0000E+00  0.6667E-02
    -26.094  0.0000E+00  0.6667E-02
    -25.975  0.0000E+00  0.6667E-02
    -25.857  0.0000E+00  0.6667E-02
    -25.739  0.0000E+00  0.6667E-02
    -25.620  0.0000E+00  0.6667E-02
    -25.502  0.0000E+00  0.6667E-02
    -25.384 -0.3207E-29  0.6667E-02
    -25.265 -0.1476E-21  0.6667E-02
    -25.147 -0.3892E-15  0.6667E-02
    -25.029 -0.6071E-10  0.6667E-02
    -24.911 -0.5254E-06  0.6667E-02
    -24.792 -0.2230E-03  0.6640E-02
    -24.674 -0.1290E-02  0.6488E-02
    -24.556  0.3746E-01  0.1092E-01
    -24.437  0.2229E-01  0.1356E-01
    -24.319 -0.1830E-02  0.1334E-01
    -24.201 -0.5655E-04  0.1333E-01
    -24.082 -0.5588E-07  0.1333E-01
    -23.964 -0.2857E-11  0.1333E-01
    -23.846 -0.1251E-16  0.1333E-01
    -23.728 -0.9638E-27  0.1333E-01
    -23.609 -0.1867E-19  0.1333E-01
    -23.491 -0.2059E-13  0.1333E-01
    -23.373 -0.1331E-08  0.1333E-01
    -23.254 -0.4672E-05  0.1333E-01
    -23.136 -0.7284E-03  0.1325E-01
    -23.018  0.3933E-02  0.1371E-01
    -22.899  0.4667E-01  0.1923E-01
    -22.781  0.7497E-02  0.2012E-01
    -22.663 -0.1009E-02  0.2000E-01
    -22.545 -0.9401E-05  0.2000E-01
    -22.426 -0.3687E-08  0.2000E-01
    -22.308 -0.7773E-13  0.2000E-01
    -22.190 -0.4215E-36  0.2000E-01
    -22.071 -0.1781E-27  0.2000E-01
    -21.953 -0.4478E-20  0.2000E-01
    -21.835 -0.6421E-14  0.2000E-01
    -21.716 -0.5411E-09  0.2000E-01
    -21.598 -0.2495E-05  0.2000E-01
    -21.480 -0.5299E-03  0.1994E-01
    -21.361  0.1643E-02  0.2013E-01
    -21.243  0.4523E-01  0.2548E-01
    -21.125  0.1130E-01  0.2682E-01
    -21.007 -0.1278E-02  0.2667E-01
    -20.888 -0.1664E-04  0.2667E-01
    -20.770 -0.8596E-08  0.2667E-01
    -20.652 -0.2364E-12  0.2667E-01
    -20.533  0.0000E+00  0.2667E-01
    -20.415  0.0000E+00  0.2667E-01
    -20.297  0.0000E+00  0.2667E-01
    -20.178  0.0000E+00  0.2667E-01
    -20.060  0.0000E+00  0.2667E-01
    -19.942  0.0000E+00  0.2667E-01
    -19.824  0.0000E+00  0.2667E-01
    -19.705 -0.5285E-34  0.2667E-01
    -19.587 -0.1166E-25  0.2667E-01
    -19.469 -0.1527E-18  0.2667E-01
    -19.350 -0.1133E-12  0.2667E-01
    -19.232 -0.4915E-08  0.2667E-01
    -19.114 -0.1142E-04  0.2667E-01
    -18.995 -0.1098E-02  0.2654E-01
    -18.877  0.8702E-02  0.2756E-01
    -18.759  0.4633E-01  0.3305E-01
    -18.641  0.3086E-02  0.3341E-01
    -18.522 -0.6570E-03  0.3333E-01
    -18.404 -0.3794E-05  0.3333E-01
    -18.286 -0.9859E-09  0.3333E-01
    -18.167 -0.1470E-13  0.3333E-01
    -18.049 -0.1013E-09  0.3333E-01
    -17.931 -0.7593E-06  0.3333E-01
    -17.812 -0.2759E-03  0.3330E-01
    -17.694 -0.8735E-03  0.3320E-01
    -17.576  0.3969E-01  0.3789E-01
    -17.457  0.1959E-01  0.4021E-01
    -17.339 -0.1734E-02  0.4001E-01
    -17.221 -0.4331E-04  0.4000E-01
    -17.103 -0.3686E-07  0.4000E-01
    -16.984 -0.1635E-11  0.4000E-01
    -16.866  0.0000E+00  0.4000E-01
    -16.748  0.0000E+00  0.4000E-01
    -16.629  0.0000E+00  0.4000E-01
    -16.511 -0.1194E-29  0.4000E-01
    -16.393 -0.6362E-22  0.4000E-01
    -16.274 -0.1941E-15  0.4000E-01
    -16.156 -0.3513E-10  0.4000E-01
    -16.038 -0.3535E-06  0.4000E-01
    -15.920 -0.1766E-03  0.3998E-01
    -15.801 -0.1597E-02  0.3979E-01
    -15.683  0.3490E-01  0.4392E-01
    -15.565  0.2519E-01  0.4690E-01
    -15.446 -0.1893E-02  0.4668E-01
    -15.328 -0.2551E-03  0.4665E-01
    -15.210 -0.1572E-02  0.4646E-01
    -15.091  0.3516E-01  0.5062E-01
    -14.973  0.2491E-01  0.5357E-01
    -14.855 -0.1888E-02  0.5334E-01
    -14.737 -0.7236E-04  0.5333E-01
    -14.618 -0.8244E-07  0.5333E-01
    -14.500 -0.4826E-11  0.5333E-01
    -14.382 -0.1251E-16  0.5333E-01
    -14.263 -0.3342E-15  0.5333E-01
    -14.145 -0.5370E-10  0.5333E-01
    -14.027 -0.4808E-06  0.5333E-01
    -13.908 -0.2118E-03  0.5331E-01
    -13.790 -0.1370E-02  0.5315E-01
    -13.672  0.3690E-01  0.5751E-01
    -13.554  0.2294E-01  0.6023E-01
    -13.435 -0.1848E-02  0.6001E-01
    -13.317 -0.6019E-04  0.6000E-01
    -13.199 -0.5130E-06  0.6000E-01
    -13.080 -0.2041E-03  0.5998E-01
    -12.962 -0.1423E-02  0.5981E-01
    -12.844  0.3650E-01  0.6413E-01
    -12.725  0.2340E-01  0.6689E-01
    -12.607 -0.1869E-02  0.6667E-01
    -12.489 -0.1094E-02  0.6654E-01
    -12.370  0.7795E-02  0.6747E-01
    -12.252  0.4660E-01  0.7298E-01
    -12.134  0.3710E-02  0.7342E-01
    -12.016 -0.7342E-03  0.7333E-01
    -11.897 -0.1472E-02  0.7316E-01
    -11.779  0.1433E-01  0.7485E-01
    -11.661  0.4349E-01  0.8000E-01
    -11.542  0.4393E-03  0.8005E-01
    -11.424 -0.4171E-03  0.8000E-01
    -11.306 -0.3187E-03  0.7996E-01
    -11.187 -0.5138E-03  0.7990E-01
    -11.069  0.4107E-01  0.8476E-01
    -10.951  0.1780E-01  0.8687E-01
    -10.833 -0.1654E-02  0.8667E-01
    -10.714 -0.8767E-04  0.8666E-01
    -10.596 -0.1800E-02  0.8645E-01
    -10.478  0.2136E-01  0.8897E-01
    -10.359  0.3825E-01  0.9350E-01
    -10.241 -0.1162E-02  0.9336E-01
    -10.123 -0.2401E-03  0.9333E-01
    -10.004 -0.2053E-04  0.9333E-01
     -9.886 -0.1371E-02  0.9317E-01
     -9.768  0.1210E-01  0.9460E-01
     -9.650  0.4684E-01  0.1001E+00
     -9.531  0.4611E-01  0.1056E+00
     -9.413  0.1444E-01  0.1073E+00
     -9.295  0.4569E-01  0.1127E+00
     -9.176  0.5940E-02  0.1134E+00
     -9.058 -0.2053E-02  0.1132E+00
     -8.940  0.3686E-01  0.1175E+00
     -8.821  0.4579E-01  0.1229E+00
     -8.703  0.3326E-01  0.1269E+00
     -8.585 -0.1633E-02  0.1267E+00
     -8.466 -0.1788E-03  0.1267E+00
     -8.348 -0.3608E-06  0.1267E+00
     -8.230 -0.3756E-06  0.1267E+00
     -8.112 -0.1831E-03  0.1266E+00
     -7.993 -0.1558E-02  0.1265E+00
     -7.875  0.3530E-01  0.1306E+00
     -7.757  0.2475E-01  0.1336E+00
     -7.638 -0.1886E-02  0.1333E+00
     -7.520 -0.7134E-04  0.1333E+00
     -7.402 -0.8060E-07  0.1333E+00
     -7.283 -0.4682E-11  0.1333E+00
     -7.165 -0.4939E-12  0.1333E+00
     -7.047 -0.1500E-07  0.1333E+00
     -6.929 -0.2409E-04  0.1333E+00
     -6.810 -0.1462E-02  0.1332E+00
     -6.692  0.1423E-01  0.1348E+00
     -6.574  0.4356E-01  0.1400E+00
     -6.455  0.4727E-03  0.1400E+00
     -6.337 -0.7804E-03  0.1400E+00
     -6.219 -0.1079E-03  0.1399E+00
     -6.100  0.4227E-01  0.1449E+00
     -5.982  0.1615E-01  0.1469E+00
     -5.864 -0.1570E-02  0.1467E+00
     -5.746 -0.3005E-04  0.1467E+00
     -5.627 -0.2101E-07  0.1467E+00
     -5.509 -0.1320E-09  0.1467E+00
     -5.391 -0.9142E-06  0.1467E+00
     -5.272 -0.3067E-03  0.1466E+00
     -5.154 -0.6769E-03  0.1466E+00
     -5.036  0.3886E-01  0.1511E+00
     -4.917  0.4260E-01  0.1562E+00
     -4.799  0.3398E-01  0.1602E+00
     -4.681 -0.1559E-02  0.1600E+00
     -4.563 -0.1891E-03  0.1600E+00
     -4.444 -0.3964E-06  0.1600E+00
     -4.326 -0.4113E-10  0.1600E+00
     -4.208 -0.2377E-15  0.1600E+00
     -4.089  0.0000E+00  0.1600E+00
     -3.971  0.0000E+00  0.1600E+00
     -3.853  0.0000E+00  0.1600E+00
     -3.734  0.0000E+00  0.1600E+00
     -3.616  0.0000E+00  0.1600E+00
     -3.498  0.0000E+00  0.1600E+00
     -3.379  0.0000E+00  0.1600E+00
     -3.261  0.0000E+00  0.1600E+00
     -3.143  0.0000E+00  0.1600E+00
     -3.025  0.0000E+00  0.1600E+00
     -2.906  0.0000E+00  0.1600E+00
     -2.788  0.0000E+00  0.1600E+00
     -2.670  0.0000E+00  0.1600E+00
     -2.551  0.0000E+00  0.1600E+00
     -2.433  0.0000E+00  0.1600E+00
     -2.315  0.0000E+00  0.1600E+00
     -2.196  0.0000E+00  0.1600E+00
     -2.078  0.0000E+00  0.1600E+00
     -1.960 -0.1173E-34  0.1600E+00
     -1.842 -0.3175E-26  0.1600E+00
     -1.723 -0.5107E-19  0.1600E+00
     -1.605 -0.4665E-13  0.1600E+00
     -1.487 -0.2495E-08  0.1600E+00
     -1.368 -0.7201E-05  0.1600E+00
     -1.250 -0.8948E-03  0.1599E+00
     -1.132  0.6002E-02  0.1606E+00
     -1.013  0.4689E-01  0.1662E+00
     -0.895  0.5198E-02  0.1668E+00
     -0.777 -0.8429E-03  0.1667E+00
     -0.659 -0.1107E-02  0.1665E+00
     -0.540  0.8574E-02  0.1675E+00
     -0.422  0.4470E-01  0.1728E+00
     -0.304  0.3769E-01  0.1773E+00
     -0.185  0.2484E-01  0.1802E+00
     -0.067 -0.1900E-02  0.1800E+00
      0.051 -0.7635E-04  0.1800E+00
      0.170 -0.9950E-07  0.1800E+00
      0.288 -0.1804E-04  0.1800E+00
      0.406 -0.1318E-02  0.1798E+00
      0.525  0.1191E-01  0.1813E+00
      0.643  0.4492E-01  0.1866E+00
      0.761  0.1365E-02  0.1867E+00
      0.879 -0.7163E-03  0.1866E+00
      0.998 -0.1372E-02  0.1865E+00
      1.116  0.3691E-01  0.1908E+00
      1.234  0.2293E-01  0.1936E+00
      1.353 -0.1848E-02  0.1933E+00
      1.471 -0.1230E-03  0.1933E+00
      1.589 -0.1859E-02  0.1931E+00
      1.708  0.2330E-01  0.1959E+00
      1.826  0.3460E-01  0.2000E+00
      1.944  0.2543E-01  0.2030E+00
      2.062  0.3190E-01  0.2067E+00
      2.181  0.9160E-02  0.2078E+00
      2.299  0.4529E-01  0.2132E+00
      2.417  0.1848E-02  0.2134E+00
      2.536 -0.5485E-03  0.2133E+00
      2.654 -0.2665E-05  0.2133E+00
      2.772 -0.5946E-09  0.2133E+00
      2.891 -0.7257E-14  0.2133E+00
      3.009  0.0000E+00  0.2133E+00
      3.127  0.0000E+00  0.2133E+00
      3.245  0.0000E+00  0.2133E+00
      3.364  0.0000E+00  0.2133E+00
      3.482  0.0000E+00  0.2133E+00
      3.600  0.0000E+00  0.2133E+00
      3.719  0.0000E+00  0.2133E+00
      3.837  0.0000E+00  0.2133E+00
      3.83697748    -31.65381327  301     -4.82186889      1.00000000
    -31.654  0.0000E+00  0.0000E+00  0.0000E+00  0.0000E+00  0.0000E+00  0.0000E+00  0.0000E+00  0.0000E+00  0.0000E+00
    -31.536  0.0000E+00  0.0000E+00  0.0000E+00  0.0000E+00  0.0000E+00  0.0000E+00  0.0000E+00  0.0000E+00  0.0000E+00
    -31.417  0.0000E+00  0.0000E+00  0.0000E+00  0.0000E+00  0.0000E+00  0.0000E+00  0.0000E+00  0.0000E+00  0.0000E+00
    -31.299  0.0000E+00  0.0000E+00  0.0000E+00  0.0000E+00  0.0000E+00  0.0000E+00  0.0000E+00  0.0000E+00  0.0000E+00
    -31.181  0.0000E+00  0.0000E+00  0.0000E+00  0.0000E+00  0.0000E+00  0.0000E+00  0.0000E+00  0.0000E+00  0.0000E+00
    -31.062  0.0000E+00  0.0000E+00  0.0000E+00  0.0000E+00  0.0000E+00  0.0000E+00  0.0000E+00  0.0000E+00  0.0000E+00
    -30.944 -0.7431E-38 -0.3152E-38 -0.8876E-40 -0.5986E-39  0.0000E+00  0.0000E+00  0.0000E+00  0.0000E+00  0.0000E+00
    -30.826 -0.3057E-29 -0.1297E-29 -0.3652E-31 -0.2462E-30  0.0000E+00  0.0000E+00  0.0000E+00  0.0000E+00  0.0000E+00
    -30.707 -0.7481E-22 -0.3173E-22 -0.8936E-24 -0.6026E-23  0.0000E+00  0.0000E+00  0.0000E+00  0.0000E+00  0.0000E+00
    -30.589 -0.1044E-15 -0.4429E-16 -0.1247E-17 -0.8409E-17  0.0000E+00  0.0000E+00  0.0000E+00  0.0000E+00  0.0000E+00
    -30.471 -0.8558E-11 -0.3630E-11 -0.1022E-12 -0.6893E-12  0.0000E+00  0.0000E+00  0.0000E+00  0.0000E+00  0.0000E+00
    -30.352 -0.3836E-07 -0.1627E-07 -0.4582E-09 -0.3090E-08  0.0000E+00  0.0000E+00  0.0000E+00  0.0000E+00  0.0000E+00
    -30.234 -0.7895E-05 -0.3349E-05 -0.9431E-07 -0.6359E-06  0.0000E+00  0.0000E+00  0.0000E+00  0.0000E+00  0.0000E+00
    -30.116  0.2661E-04  0.1129E-04  0.3178E-06  0.2143E-05  0.0000E+00  0.0000E+00  0.0000E+00  0.0000E+00  0.0000E+00
    -29.998  0.6540E-03  0.2774E-03  0.7812E-05  0.5268E-04  0.0000E+00  0.0000E+00  0.0000E+00  0.0000E+00  0.0000E+00
    -29.879  0.1566E-03  0.6643E-04  0.1871E-05  0.1261E-04  0.0000E+00  0.0000E+00  0.0000E+00  0.0000E+00  0.0000E+00
    -29.761 -0.1799E-04 -0.7630E-05 -0.2149E-06 -0.1449E-05  0.0000E+00  0.0000E+00  0.0000E+00  0.0000E+00  0.0000E+00
    -29.643 -0.2260E-06 -0.9587E-07 -0.2700E-08 -0.1820E-07  0.0000E+00  0.0000E+00  0.0000E+00  0.0000E+00  0.0000E+00
    -29.524 -0.1135E-09 -0.4814E-10 -0.1355E-11 -0.9140E-11  0.0000E+00  0.0000E+00  0.0000E+00  0.0000E+00  0.0000E+00
    -29.406 -0.3037E-14 -0.1288E-14 -0.3627E-16 -0.2446E-15  0.0000E+00  0.0000E+00  0.0000E+00  0.0000E+00  0.0000E+00
    -29.288  0.0000E+00  0.0000E+00  0.0000E+00  0.0000E+00  0.0000E+00  0.0000E+00  0.0000E+00  0.0000E+00  0.0000E+00
    -29.169  0.0000E+00  0.0000E+00  0.0000E+00  0.0000E+00  0.0000E+00  0.0000E+00  0.0000E+00  0.0000E+00  0.0000E+00
    -29.051  0.0000E+00  0.0000E+00  0.0000E+00  0.0000E+00  0.0000E+00  0.0000E+00  0.0000E+00  0.0000E+00  0.0000E+00
    -28.933  0.0000E+00  0.0000E+00  0.0000E+00  0.0000E+00  0.0000E+00  0.0000E+00  0.0000E+00  0.0000E+00  0.0000E+00
    -28.815  0.0000E+00  0.0000E+00  0.0000E+00  0.0000E+00  0.0000E+00  0.0000E+00  0.0000E+00  0.0000E+00  0.0000E+00
    -28.696  0.0000E+00  0.0000E+00  0.0000E+00  0.0000E+00  0.0000E+00  0.0000E+00  0.0000E+00  0.0000E+00  0.0000E+00
    -28.578  0.0000E+00  0.0000E+00  0.0000E+00  0.0000E+00  0.0000E+00  0.0000E+00  0.0000E+00  0.0000E+00  0.0000E+00
    -28.460  0.0000E+00  0.0000E+00  0.0000E+00  0.0000E+00  0.0000E+00  0.0000E+00  0.0000E+00  0.0000E+00  0.0000E+00
    -28.341  0.0000E+00  0.0000E+00  0.0000E+00  0.0000E+00  0.0000E+00  0.0000E+00  0.0000E+00  0.0000E+00  0.0000E+00
    -28.223  0.0000E+00  0.0000E+00  0.0000E+00  0.0000E+00  0.0000E+00  0.0000E+00  0.0000E+00  0.0000E+00  0.0000E+00
    -28.105  0.0000E+00  0.0000E+00  0.0000E+00  0.0000E+00  0.0000E+00  0.0000E+00  0.0000E+00  0.0000E+00  0.0000E+00
    -27.986  0.0000E+00  0.0000E+00  0.0000E+00  0.0000E+00  0.0000E+00  0.0000E+00  0.0000E+00  0.0000E+00  0.0000E+00
    -27.868  0.0000E+00  0.0000E+00  0.0000E+00  0.0000E+00  0.0000E+00  0.0000E+00  0.0000E+00  0.0000E+00  0.0000E+00
    -27.750  0.0000E+00  0.0000E+00  0.0000E+00  0.0000E+00  0.0000E+00  0.0000E+00  0.0000E+00  0.0000E+00  0.0000E+00
    -27.632  0.0000E+00  0.0000E+00  0.0000E+00  0.0000E+00  0.0000E+00  0.0000E+00  0.0000E+00  0.0000E+00  0.0000E+00
    -27.513  0.0000E+00  0.0000E+00  0.0000E+00  0.0000E+00  0.0000E+00  0.0000E+00  0.0000E+00  0.0000E+00  0.0000E+00
    -27.395  0.0000E+00  0.0000E+00  0.0000E+00  0.0000E+00  0.0000E+00  0.0000E+00  0.0000E+00  0.0000E+00  0.0000E+00
    -27.277  0.0000E+00  0.0000E+00  0.0000E+00  0.0000E+00  0.0000E+00  0.0000E+00  0.0000E+00  0.0000E+00  0.0000E+00
    -27.158  0.0000E+00  0.0000E+00  0.0000E+00  0.0000E+00  0.0000E+00  0.0000E+00  0.0000E+00  0.0000E+00  0.0000E+00
    -27.040  0.0000E+00  0.0000E+00  0.0000E+00  0.0000E+00  0.0000E+00  0.0000E+00  0.0000E+00  0.0000E+00  0.0000E+00
    -26.922  0.0000E+00  0.0000E+00  0.0000E+00  0.0000E+00  0.0000E+00  0.0000E+00  0.0000E+00  0.0000E+00  0.0000E+00
    -26.803  0.0000E+00  0.0000E+00  0.0000E+00  0.0000E+00  0.0000E+00  0.0000E+00  0.0000E+00  0.0000E+00  0.0000E+00
    -26.685  0.0000E+00  0.0000E+00  0.0000E+00  0.0000E+00  0.0000E+00  0.0000E+00  0.0000E+00  0.0000E+00  0.0000E+00
    -26.567  0.0000E+00  0.0000E+00  0.0000E+00  0.0000E+00  0.0000E+00  0.0000E+00  0.0000E+00  0.0000E+00  0.0000E+00
    -26.448  0.0000E+00  0.0000E+00  0.0000E+00  0.0000E+00  0.0000E+00  0.0000E+00  0.0000E+00  0.0000E+00  0.0000E+00
    -26.330  0.0000E+00  0.0000E+00  0.0000E+00  0.0000E+00  0.0000E+00  0.0000E+00  0.0000E+00  0.0000E+00  0.0000E+00
    -26.212  0.0000E+00  0.0000E+00  0.0000E+00  0.0000E+00  0.0000E+00  0.0000E+00  0.0000E+00  0.0000E+00  0.0000E+00
    -26.094  0.0000E+00  0.0000E+00  0.0000E+00  0.0000E+00  0.0000E+00  0.0000E+00  0.0000E+00  0.0000E+00  0.0000E+00
    -25.975  0.0000E+00  0.0000E+00  0.0000E+00  0.0000E+00  0.0000E+00  0.0000E+00  0.0000E+00  0.0000E+00  0.0000E+00
    -25.857  0.0000E+00  0.0000E+00  0.0000E+00  0.0000E+00  0.0000E+00  0.0000E+00  0.0000E+00  0.0000E+00  0.0000E+00
    -25.739  0.0000E+00  0.0000E+00  0.0000E+00  0.0000E+00  0.0000E+00  0.0000E+00  0.0000E+00  0.0000E+00  0.0000E+00
    -25.620  0.0000E+00  0.0000E+00  0.0000E+00  0.0000E+00  0.0000E+00  0.0000E+00  0.0000E+00  0.0000E+00  0.0000E+00
    -25.502  0.0000E+00  0.0000E+00  0.0000E+00  0.0000E+00  0.0000E+00  0.0000E+00  0.0000E+00  0.0000E+00  0.0000E+00
    -25.384 -0.6020E-30 -0.2852E-31 -0.5844E-31 -0.1103E-30  0.0000E+00  0.0000E+00  0.0000E+00  0.0000E+00  0.0000E+00
    -25.265 -0.2772E-22 -0.1313E-23 -0.2691E-23 -0.5079E-23  0.0000E+00  0.0000E+00  0.0000E+00  0.0000E+00  0.0000E+00
    -25.147 -0.7306E-16 -0.3461E-17 -0.7092E-17 -0.1339E-16  0.0000E+00  0.0000E+00  0.0000E+00  0.0000E+00  0.0000E+00
    -25.029 -0.1140E-10 -0.5400E-12 -0.1106E-11 -0.2089E-11  0.0000E+00  0.0000E+00  0.0000E+00  0.0000E+00  0.0000E+00
    -24.911 -0.9863E-07 -0.4673E-08 -0.9574E-08 -0.1807E-07  0.0000E+00  0.0000E+00  0.0000E+00  0.0000E+00  0.0000E+00
    -24.792 -0.4188E-04 -0.1984E-05 -0.4065E-05 -0.7674E-05  0.0000E+00  0.0000E+00  0.0000E+00  0.0000E+00  0.0000E+00
    -24.674 -0.2421E-03 -0.1147E-04 -0.2350E-04 -0.4437E-04  0.0000E+00  0.0000E+00  0.0000E+00  0.0000E+00  0.0000E+00
    -24.556  0.7034E-02  0.3332E-03  0.6827E-03  0.1289E-02  0.0000E+00  0.0000E+00  0.0000E+00  0.0000E+00  0.0000E+00
    -24.437  0.4185E-02  0.1982E-03  0.4062E-03  0.7668E-03  0.0000E+00  0.0000E+00  0.0000E+00  0.0000E+00  0.0000E+00
    -24.319 -0.3435E-03 -0.1627E-04 -0.3335E-04 -0.6295E-04  0.0000E+00  0.0000E+00  0.0000E+00  0.0000E+00  0.0000E+00
    -24.201 -0.1062E-04 -0.5030E-06 -0.1031E-05 -0.1946E-05  0.0000E+00  0.0000E+00  0.0000E+00  0.0000E+00  0.0000E+00
    -24.082 -0.1049E-07 -0.4970E-09 -0.1018E-08 -0.1922E-08  0.0000E+00  0.0000E+00  0.0000E+00  0.0000E+00  0.0000E+00
    -23.964 -0.5365E-12 -0.2541E-13 -0.5208E-13 -0.9831E-13  0.0000E+00  0.0000E+00  0.0000E+00  0.0000E+00  0.0000E+00