   15   15  300    1
  0.6786772E+02  0.7745500E-09  0.1175610E-08  0.1118000E-08  0.1000000E-14
   500.000000000000     
  CAR 
 Cluster                                 
     48      1     32
 
  0.0000000E+00  0.0000000E+00  0.0000000E+00  0.1000000E+01
      1        -30.040596   1.000000
      2        -24.572204   1.000000
      3        -22.952210   1.000000
      4        -21.285072   1.000000
      5        -18.828004   1.000000
      6        -17.598143   1.000000
      7        -15.693398   1.000000
      8        -15.102486   1.000000
      9        -13.686984   1.000000
     10        -12.857888   1.000000
     11        -12.318623   1.000000
     12        -11.744683   1.000000
     13        -11.095424   1.000000
     14        -10.459115   1.000000
     15         -9.729499   1.000000
     16         -9.576910   1.000000
     17         -9.351630   1.000000
     18         -8.959554   1.000000
     19         -8.810654   1.000000
     20         -7.886347   1.000000
     21         -6.657420   1.000000
     22         -6.130463   1.000000
     23         -5.061027   1.001854
     24         -4.905227   0.998146
     25         -1.074016   0.000000
     26         -0.491223   0.000000
     27         -0.313435   0.000000
     28          0.564803   0.000000
     29          1.100833   0.000000
     30          1.721752   0.000000
     31          1.951084   0.000000
     32          2.223760   0.000000
