PROCAR lm decomposed
# of k-points:    1         # of bands:   32         # of ions:   15

 k-point     1 :    0.00000000 0.00000000 0.00000000     weight = 1.00000000

band     1 # energy  -30.04059551 # occ.  2.00000000
 
ion      s     py     pz     px    dxy    dyz    dz2    dxz  x2-y2    tot
    1  0.000  0.000  0.000  0.000  0.000  0.000  0.000  0.000  0.000  0.000
    2  0.001  0.001  0.000  0.000  0.000  0.000  0.000  0.000  0.000  0.002
    3  0.050  0.009  0.011  0.009  0.000  0.000  0.000  0.000  0.000  0.079
    4  0.002  0.000  0.000  0.000  0.000  0.000  0.000  0.000  0.000  0.002
    5  0.000  0.000  0.000  0.000  0.000  0.000  0.000  0.000  0.000  0.000
    6  0.783  0.007  0.010  0.009  0.000  0.000  0.000  0.000  0.000  0.809
    7  0.000  0.000  0.000  0.000  0.000  0.000  0.000  0.000  0.000  0.000
    8  0.000  0.000  0.000  0.000  0.000  0.000  0.000  0.000  0.000  0.000
    9  0.000  0.000  0.000  0.000  0.000  0.000  0.000  0.000  0.000  0.000
   10  0.000  0.000  0.000  0.000  0.000  0.000  0.000  0.000  0.000  0.000
   11  0.000  0.000  0.000  0.000  0.000  0.000  0.000  0.000  0.000  0.000
   12  0.000  0.000  0.000  0.000  0.000  0.000  0.000  0.000  0.000  0.000
   13  0.000  0.000  0.000  0.000  0.000  0.000  0.000  0.000  0.000  0.001
   14  0.000  0.000  0.000  0.000  0.000  0.000  0.000  0.000  0.000  0.000
   15  0.000  0.000  0.000  0.000  0.000  0.000  0.000  0.000  0.000  0.000
tot    0.836  0.016  0.022  0.019  0.000  0.000  0.000  0.000  0.000  0.893
 
band     2 # energy  -24.57220417 # occ.  2.00000000
 
ion      s     py     pz     px    dxy    dyz    dz2    dxz  x2-y2    tot
    1  0.001  0.000  0.000  0.000  0.000  0.000  0.000  0.000  0.000  0.001
    2  0.023  0.000  0.003  0.003  0.000  0.000  0.000  0.000  0.000  0.029
    3  0.021  0.000  0.004  0.005  0.000  0.000  0.000  0.000  0.000  0.030
    4  0.153  0.000  0.003  0.004  0.000  0.000  0.000  0.000  0.000  0.160
    5  0.091  0.012  0.004  0.001  0.000  0.000  0.000  0.000  0.000  0.109
    6  0.007  0.000  0.000  0.000  0.000  0.000  0.000  0.000  0.000  0.007
    7  0.000  0.000  0.000  0.000  0.000  0.000  0.000  0.000  0.000  0.000
    8  0.000  0.000  0.000  0.000  0.000  0.000  0.000  0.000  0.000  0.000
    9  0.000  0.000  0.000  0.000  0.000  0.000  0.000  0.000  0.000  0.000
   10  0.008  0.001  0.000  0.000  0.000  0.000  0.000  0.000  0.000  0.010
   11  0.011  0.000  0.000  0.001  0.000  0.000  0.000  0.000  0.000  0.012
   12  0.002  0.000  0.000  0.000  0.000  0.000  0.000  0.000  0.000  0.002
   13  0.108  0.007  0.000  0.000  0.000  0.000  0.000  0.000  0.000  0.116
   14  0.224  0.003  0.006  0.020  0.000  0.000  0.000  0.000  0.000  0.253
   15  0.066  0.010  0.000  0.000  0.000  0.000  0.000  0.000  0.000  0.077
tot    0.716  0.035  0.020  0.035  0.000  0.000  0.000  0.000  0.000  0.805
 
band     3 # energy  -22.95220997 # occ.  2.00000000
 
ion      s     py     pz     px    dxy    dyz    dz2    dxz  x2-y2    tot
    1  0.003  0.000  0.000  0.000  0.000  0.000  0.000  0.000  0.000  0.004
    2  0.048  0.000  0.004  0.004  0.000  0.000  0.000  0.000  0.000  0.057
    3  0.002  0.007  0.000  0.000  0.000  0.000  0.000  0.000  0.000  0.010
    4  0.045  0.043  0.000  0.000  0.000  0.000  0.000  0.000  0.000  0.089
    5  0.060  0.000  0.004  0.003  0.000  0.000  0.000  0.000  0.000  0.068
    6  0.000  0.000  0.000  0.000  0.000  0.000  0.000  0.000  0.000  0.001
    7  0.000  0.000  0.000  0.000  0.000  0.000  0.000  0.000  0.000  0.000
    8  0.000  0.000  0.000  0.000  0.000  0.000  0.000  0.000  0.000  0.000
    9  0.000  0.000  0.000  0.000  0.000  0.000  0.000  0.000  0.000  0.000
   10  0.036  0.002  0.002  0.002  0.000  0.000  0.000  0.000  0.000  0.042
   11  0.037  0.001  0.001  0.004  0.000  0.000  0.000  0.000  0.000  0.044
   12  0.002  0.000  0.000  0.000  0.000  0.000  0.000  0.000  0.000  0.002
   13  0.335  0.006  0.001  0.000  0.000  0.000  0.000  0.000  0.000  0.342
   14  0.011  0.014  0.000  0.001  0.000  0.000  0.000  0.000  0.000  0.026
   15  0.136  0.014  0.000  0.000  0.000  0.000  0.000  0.000  0.000  0.151
tot    0.717  0.090  0.013  0.016  0.000  0.000  0.000  0.000  0.000  0.835
 
band     4 # energy  -21.28507187 # occ.  2.00000000
 
ion      s     py     pz     px    dxy    dyz    dz2    dxz  x2-y2    tot
    1  0.017  0.000  0.001  0.002  0.000  0.000  0.000  0.000  0.000  0.020
    2  0.120  0.002  0.006  0.004  0.000  0.000  0.000  0.000  0.000  0.131
    3  0.013  0.006  0.000  0.000  0.000  0.000  0.000  0.000  0.000  0.019
    4  0.004  0.023  0.008  0.010  0.000  0.000  0.000  0.000  0.000  0.045
    5  0.012  0.048  0.002  0.013  0.000  0.000  0.000  0.000  0.000  0.074
    6  0.004  0.000  0.000  0.000  0.000  0.000  0.000  0.000  0.000  0.005
    7  0.001  0.000  0.000  0.000  0.000  0.000  0.000  0.000  0.000  0.001
    8  0.002  0.000  0.000  0.000  0.000  0.000  0.000  0.000  0.000  0.002
    9  0.001  0.000  0.000  0.000  0.000  0.000  0.000  0.000  0.000  0.001
   10  0.014  0.001  0.001  0.001  0.000  0.000  0.000  0.000  0.000  0.016
   11  0.009  0.000  0.000  0.001  0.000  0.000  0.000  0.000  0.000  0.010
   12  0.001  0.000  0.000  0.000  0.000  0.000  0.000  0.000  0.000  0.001
   13  0.077  0.000  0.001  0.000  0.000  0.000  0.000  0.000  0.000  0.078
   14  0.226  0.007  0.001  0.010  0.000  0.000  0.000  0.000  0.000  0.245
   15  0.171  0.010  0.005  0.004  0.000  0.000  0.000  0.000  0.000  0.189
tot    0.671  0.097  0.025  0.044  0.000  0.000  0.000  0.000  0.000  0.837
 
band     5 # energy  -18.82800386 # occ.  2.00000000
 
ion      s     py     pz     px    dxy    dyz    dz2    dxz  x2-y2    tot
    1  0.050  0.002  0.000  0.001  0.000  0.000  0.000  0.000  0.000  0.052
    2  0.069  0.015  0.005  0.005  0.000  0.000  0.000  0.000  0.000  0.094
    3  0.154  0.005  0.003  0.004  0.000  0.000  0.000  0.000  0.000  0.166
    4  0.060  0.017  0.002  0.005  0.000  0.000  0.000  0.000  0.000  0.083
    5  0.092  0.006  0.002  0.003  0.000  0.000  0.000  0.000  0.000  0.102
    6  0.024  0.007  0.006  0.005  0.000  0.000  0.000  0.000  0.000  0.042
    7  0.007  0.000  0.000  0.000  0.000  0.000  0.000  0.000  0.000  0.007
    8  0.005  0.000  0.000  0.000  0.000  0.000  0.000  0.000  0.000  0.005
    9  0.005  0.000  0.000  0.000  0.000  0.000  0.000  0.000  0.000  0.005
   10  0.010  0.000  0.001  0.001  0.000  0.000  0.000  0.000  0.000  0.011
   11  0.012  0.000  0.000  0.001  0.000  0.000  0.000  0.000  0.000  0.013
   12  0.010  0.000  0.001  0.000  0.000  0.000  0.000  0.000  0.000  0.012
   13  0.039  0.007  0.000  0.001  0.000  0.000  0.000  0.000  0.000  0.047
   14  0.000  0.013  0.004  0.003  0.000  0.000  0.000  0.000  0.000  0.020
   15  0.091  0.003  0.010  0.015  0.000  0.000  0.000  0.000  0.000  0.120
tot    0.627  0.076  0.035  0.044  0.000  0.000  0.000  0.000  0.000  0.782
 
band     6 # energy  -17.59814274 # occ.  2.00000000
 
ion      s     py     pz     px    dxy    dyz    dz2    dxz  x2-y2    tot
    1  0.248  0.000  0.000  0.001  0.000  0.000  0.000  0.000  0.000  0.250
    2  0.019  0.021  0.011  0.023  0.000  0.000  0.000  0.000  0.000  0.073
    3  0.072  0.005  0.007  0.013  0.000  0.000  0.000  0.000  0.000  0.096
    4  0.035  0.004  0.012  0.021  0.000  0.000  0.000  0.000  0.000  0.072
    5  0.002  0.012  0.002  0.007  0.000  0.000  0.000  0.000  0.000  0.023
    6  0.006  0.000  0.006  0.007  0.000  0.000  0.000  0.000  0.000  0.019
    7  0.036  0.001  0.002  0.001  0.000  0.000  0.000  0.000  0.000  0.040
    8  0.036  0.003  0.000  0.001  0.000  0.000  0.000  0.000  0.000  0.040
    9  0.033  0.000  0.001  0.002  0.000  0.000  0.000  0.000  0.000  0.036
   10  0.002  0.000  0.000  0.000  0.000  0.000  0.000  0.000  0.000  0.002
   11  0.010  0.000  0.000  0.001  0.000  0.000  0.000  0.000  0.000  0.011
   12  0.001  0.000  0.000  0.000  0.000  0.000  0.000  0.000  0.000  0.001
   13  0.012  0.006  0.001  0.005  0.000  0.000  0.000  0.000  0.000  0.023
   14  0.033  0.004  0.001  0.000  0.000  0.000  0.000  0.000  0.000  0.039
   15  0.009  0.004  0.002  0.003  0.000  0.000  0.000  0.000  0.000  0.017
tot    0.554  0.059  0.046  0.084  0.000  0.000  0.000  0.000  0.000  0.743
 
band     7 # energy  -15.69339805 # occ.  2.00000000
 
ion      s     py     pz     px    dxy    dyz    dz2    dxz  x2-y2    tot
    1  0.000  0.001  0.000  0.000  0.000  0.000  0.000  0.000  0.000  0.002
    2  0.000  0.036  0.009  0.006  0.000  0.000  0.000  0.000  0.000  0.051
    3  0.071  0.001  0.001  0.002  0.000  0.000  0.000  0.000  0.000  0.075
    4  0.050  0.000  0.023  0.043  0.000  0.000  0.000  0.000  0.000  0.116
    5  0.095  0.007  0.005  0.013  0.000  0.000  0.000  0.000  0.000  0.121
    6  0.019  0.018  0.019  0.015  0.000  0.000  0.000  0.000  0.000  0.071
    7  0.001  0.000  0.000  0.000  0.000  0.000  0.000  0.000  0.000  0.001
    8  0.000  0.000  0.000  0.000  0.000  0.000  0.000  0.000  0.000  0.000
    9  0.000  0.000  0.000  0.000  0.000  0.000  0.000  0.000  0.000  0.000
   10  0.045  0.001  0.002  0.002  0.000  0.000  0.000  0.000  0.000  0.050
   11  0.000  0.000  0.000  0.000  0.000  0.000  0.000  0.000  0.000  0.001
   12  0.028  0.001  0.001  0.001  0.000  0.000  0.000  0.000  0.000  0.031
   13  0.014  0.051  0.013  0.011  0.000  0.000  0.000  0.000  0.000  0.089
   14  0.002  0.124  0.024  0.010  0.000  0.000  0.000  0.000  0.000  0.160
   15  0.037  0.000  0.010  0.012  0.000  0.000  0.000  0.000  0.000  0.060
tot    0.363  0.242  0.108  0.116  0.000  0.000  0.000  0.000  0.000  0.829
 
band     8 # energy  -15.10248646 # occ.  2.00000000
 
ion      s     py     pz     px    dxy    dyz    dz2    dxz  x2-y2    tot
    1  0.082  0.005  0.002  0.004  0.000  0.000  0.000  0.000  0.000  0.092
    2  0.072  0.021  0.002  0.006  0.000  0.000  0.000  0.000  0.000  0.101
    3  0.001  0.089  0.005  0.013  0.000  0.000  0.000  0.000  0.000  0.108
    4  0.055  0.007  0.013  0.024  0.000  0.000  0.000  0.000  0.000  0.100
    5  0.024  0.025  0.000  0.003  0.000  0.000  0.000  0.000  0.000  0.051
    6  0.000  0.009  0.003  0.006  0.000  0.000  0.000  0.000  0.000  0.018
    7  0.020  0.001  0.001  0.000  0.000  0.000  0.000  0.000  0.000  0.022
    8  0.023  0.001  0.000  0.001  0.000  0.000  0.000  0.000  0.000  0.025
    9  0.022  0.000  0.001  0.001  0.000  0.000  0.000  0.000  0.000  0.024
   10  0.002  0.000  0.000  0.001  0.000  0.000  0.000  0.000  0.000  0.003
   11  0.048  0.000  0.001  0.004  0.000  0.000  0.000  0.000  0.000  0.053
   12  0.009  0.000  0.001  0.000  0.000  0.000  0.000  0.000  0.000  0.010
   13  0.012  0.055  0.006  0.033  0.000  0.000  0.000  0.000  0.000  0.105
   14  0.019  0.000  0.000  0.000  0.000  0.000  0.000  0.000  0.000  0.019
   15  0.007  0.001  0.025  0.025  0.000  0.000  0.000  0.000  0.000  0.058
tot    0.396  0.215  0.059  0.120  0.000  0.000  0.000  0.000  0.000  0.791
 
band     9 # energy  -13.68698419 # occ.  2.00000000
 
ion      s     py     pz     px    dxy    dyz    dz2    dxz  x2-y2    tot
    1  0.000  0.002  0.001  0.002  0.000  0.000  0.000  0.000  0.000  0.006
    2  0.003  0.034  0.011  0.009  0.000  0.000  0.000  0.000  0.000  0.057
    3  0.011  0.007  0.019  0.026  0.000  0.000  0.000  0.000  0.000  0.062
    4  0.000  0.014  0.009  0.021  0.000  0.000  0.000  0.000  0.000  0.044
    5  0.016  0.054  0.000  0.004  0.000  0.000  0.000  0.000  0.000  0.074
    6  0.008  0.074  0.017  0.009  0.000  0.000  0.000  0.000  0.000  0.107
    7  0.003  0.000  0.000  0.000  0.000  0.000  0.000  0.000  0.000  0.003
    8  0.001  0.000  0.000  0.000  0.000  0.000  0.000  0.000  0.000  0.001
    9  0.000  0.000  0.000  0.000  0.000  0.000  0.000  0.000  0.000  0.000
   10  0.091  0.004  0.003  0.002  0.000  0.000  0.000  0.000  0.000  0.100
   11  0.035  0.002  0.000  0.002  0.000  0.000  0.000  0.000  0.000  0.039
   12  0.014  0.000  0.001  0.001  0.000  0.000  0.000  0.000  0.000  0.016
   13  0.000  0.037  0.052  0.095  0.000  0.000  0.000  0.000  0.000  0.184
   14  0.005  0.027  0.000  0.000  0.000  0.000  0.000  0.000  0.000  0.032
   15  0.000  0.000  0.045  0.046  0.000  0.000  0.000  0.000  0.000  0.090
tot    0.188  0.255  0.158  0.216  0.000  0.000  0.000  0.000  0.000  0.816
 
band    10 # energy  -12.85788802 # occ.  2.00000000
 
ion      s     py     pz     px    dxy    dyz    dz2    dxz  x2-y2    tot
    1  0.015  0.002  0.010  0.021  0.000  0.000  0.000  0.000  0.000  0.048
    2  0.029  0.028  0.000  0.000  0.000  0.000  0.000  0.000  0.000  0.058
    3  0.004  0.005  0.013  0.021  0.000  0.000  0.000  0.000  0.000  0.043
    4  0.000  0.122  0.000  0.000  0.000  0.000  0.000  0.000  0.000  0.123
    5  0.001  0.012  0.022  0.035  0.000  0.000  0.000  0.000  0.000  0.071
    6  0.003  0.011  0.023  0.015  0.000  0.000  0.000  0.000  0.000  0.053
    7  0.021  0.001  0.001  0.000  0.000  0.000  0.000  0.000  0.000  0.022
    8  0.004  0.000  0.000  0.000  0.000  0.000  0.000  0.000  0.000  0.005
    9  0.010  0.000  0.001  0.000  0.000  0.000  0.000  0.000  0.000  0.011
   10  0.013  0.000  0.001  0.002  0.000  0.000  0.000  0.000  0.000  0.015
   11  0.032  0.000  0.001  0.003  0.000  0.000  0.000  0.000  0.000  0.036
   12  0.012  0.001  0.000  0.000  0.000  0.000  0.000  0.000  0.000  0.013
   13  0.000  0.144  0.000  0.016  0.000  0.000  0.000  0.000  0.000  0.160
   14  0.006  0.013  0.028  0.018  0.000  0.000  0.000  0.000  0.000  0.065
   15  0.000  0.006  0.030  0.040  0.000  0.000  0.000  0.000  0.000  0.076
tot    0.153  0.345  0.130  0.172  0.000  0.000  0.000  0.000  0.000  0.799
 
band    11 # energy  -12.31862337 # occ.  2.00000000
 
ion      s     py     pz     px    dxy    dyz    dz2    dxz  x2-y2    tot
    1  0.001  0.010  0.000  0.000  0.000  0.000  0.000  0.000  0.000  0.011
    2  0.018  0.050  0.003  0.003  0.000  0.000  0.000  0.000  0.000  0.074
    3  0.001  0.095  0.023  0.007  0.000  0.000  0.000  0.000  0.000  0.126
    4  0.007  0.022  0.000  0.002  0.000  0.000  0.000  0.000  0.000  0.032
    5  0.014  0.005  0.008  0.001  0.000  0.000  0.000  0.000  0.000  0.028
    6  0.016  0.037  0.157  0.171  0.000  0.000  0.000  0.000  0.000  0.382
    7  0.001  0.000  0.000  0.000  0.000  0.000  0.000  0.000  0.000  0.001
    8  0.006  0.000  0.000  0.000  0.000  0.000  0.000  0.000  0.000  0.006
    9  0.001  0.000  0.000  0.000  0.000  0.000  0.000  0.000  0.000  0.001
   10  0.002  0.000  0.000  0.000  0.000  0.000  0.000  0.000  0.000  0.003
   11  0.018  0.000  0.000  0.001  0.000  0.000  0.000  0.000  0.000  0.020
   12  0.021  0.000  0.001  0.000  0.000  0.000  0.000  0.000  0.000  0.022
   13  0.000  0.056  0.000  0.014  0.000  0.000  0.000  0.000  0.000  0.071
   14  0.011  0.001  0.004  0.000  0.000  0.000  0.000  0.000  0.000  0.017
   15  0.019  0.001  0.007  0.005  0.000  0.000  0.000  0.000  0.000  0.032
tot    0.137  0.280  0.203  0.205  0.000  0.000  0.000  0.000  0.000  0.825
 
band    12 # energy  -11.74468254 # occ.  2.00000000
 
ion      s     py     pz     px    dxy    dyz    dz2    dxz  x2-y2    tot
    1  0.000  0.008  0.000  0.000  0.000  0.000  0.000  0.000  0.000  0.009
    2  0.000  0.009  0.005  0.007  0.000  0.000  0.000  0.000  0.000  0.021
    3  0.006  0.013  0.021  0.044  0.000  0.000  0.000  0.000  0.000  0.084
    4  0.001  0.002  0.029  0.035  0.000  0.000  0.000  0.000  0.000  0.067
    5  0.004  0.009  0.012  0.022  0.000  0.000  0.000  0.000  0.000  0.047
    6  0.002  0.065  0.006  0.000  0.000  0.000  0.000  0.000  0.000  0.074
    7  0.002  0.000  0.000  0.000  0.000  0.000  0.000  0.000  0.000  0.002
    8  0.004  0.000  0.000  0.000  0.000  0.000  0.000  0.000  0.000  0.005
    9  0.001  0.000  0.000  0.000  0.000  0.000  0.000  0.000  0.000  0.001
   10  0.085  0.004  0.002  0.001  0.000  0.000  0.000  0.000  0.000  0.092
   11  0.107  0.002  0.001  0.007  0.000  0.000  0.000  0.000  0.000  0.116
   12  0.013  0.001  0.000  0.000  0.000  0.000  0.000  0.000  0.000  0.014
   13  0.000  0.000  0.052  0.163  0.000  0.000  0.000  0.000  0.000  0.215
   14  0.010  0.046  0.012  0.008  0.000  0.000  0.000  0.000  0.000  0.076
   15  0.003  0.000  0.015  0.016  0.000  0.000  0.000  0.000  0.000  0.035
tot    0.238  0.158  0.158  0.302  0.000  0.000  0.000  0.000  0.000  0.856
 
band    13 # energy  -11.09542406 # occ.  2.00000000
 
ion      s     py     pz     px    dxy    dyz    dz2    dxz  x2-y2    tot
    1  0.000  0.000  0.009  0.012  0.000  0.000  0.000  0.000  0.000  0.021
    2  0.001  0.000  0.032  0.011  0.000  0.000  0.000  0.000  0.000  0.045
    3  0.000  0.003  0.052  0.040  0.000  0.000  0.000  0.000  0.000  0.095
    4  0.000  0.000  0.039  0.024  0.000  0.000  0.000  0.000  0.000  0.063
    5  0.000  0.003  0.007  0.010  0.000  0.000  0.000  0.000  0.000  0.020
    6  0.000  0.003  0.146  0.087  0.000  0.000  0.000  0.000  0.000  0.236
    7  0.000  0.000  0.000  0.000  0.000  0.000  0.000  0.000  0.000  0.000
    8  0.004  0.000  0.000  0.000  0.000  0.000  0.000  0.000  0.000  0.004
    9  0.013  0.000  0.000  0.000  0.000  0.000  0.000  0.000  0.000  0.013
   10  0.000  0.000  0.000  0.000  0.000  0.000  0.000  0.000  0.000  0.001
   11  0.001  0.000  0.000  0.000  0.000  0.000  0.000  0.000  0.000  0.002
   12  0.000  0.000  0.000  0.000  0.000  0.000  0.000  0.000  0.000  0.001
   13  0.000  0.002  0.021  0.001  0.000  0.000  0.000  0.000  0.000  0.024
   14  0.000  0.000  0.022  0.017  0.000  0.000  0.000  0.000  0.000  0.040
   15  0.000  0.001  0.009  0.016  0.000  0.000  0.000  0.000  0.000  0.026
tot    0.020  0.013  0.337  0.220  0.000  0.000  0.000  0.000  0.000  0.591
 
band    14 # energy  -10.45911532 # occ.  2.00000000
 
ion      s     py     pz     px    dxy    dyz    dz2    dxz  x2-y2    tot
    1  0.001  0.004  0.021  0.058  0.000  0.000  0.000  0.000  0.000  0.083
    2  0.010  0.017  0.012  0.031  0.000  0.000  0.000  0.000  0.000  0.070
    3  0.000  0.004  0.003  0.002  0.000  0.000  0.000  0.000  0.000  0.009
    4  0.006  0.055  0.002  0.002  0.000  0.000  0.000  0.000  0.000  0.065
    5  0.001  0.087  0.058  0.006  0.000  0.000  0.000  0.000  0.000  0.151
    6  0.000  0.021  0.000  0.000  0.000  0.000  0.000  0.000  0.000  0.022
    7  0.029  0.001  0.001  0.000  0.000  0.000  0.000  0.000  0.000  0.031
    8  0.000  0.000  0.000  0.001  0.000  0.000  0.000  0.000  0.000  0.001
    9  0.011  0.000  0.001  0.000  0.000  0.000  0.000  0.000  0.000  0.012
   10  0.014  0.000  0.000  0.001  0.000  0.000  0.000  0.000  0.000  0.015
   11  0.001  0.000  0.000  0.000  0.000  0.000  0.000  0.000  0.000  0.001
   12  0.090  0.001  0.002  0.002  0.000  0.000  0.000  0.000  0.000  0.096
   13  0.003  0.061  0.002  0.000  0.000  0.000  0.000  0.000  0.000  0.066
   14  0.000  0.092  0.003  0.002  0.000  0.000  0.000  0.000  0.000  0.097
   15  0.000  0.036  0.008  0.000  0.000  0.000  0.000  0.000  0.000  0.044
tot    0.166  0.379  0.114  0.105  0.000  0.000  0.000  0.000  0.000  0.764
 
band    15 # energy   -9.72949886 # occ.  2.00000000
 
ion      s     py     pz     px    dxy    dyz    dz2    dxz  x2-y2    tot
    1  0.000  0.002  0.045  0.084  0.000  0.000  0.000  0.000  0.000  0.131
    2  0.000  0.001  0.034  0.002  0.000  0.000  0.000  0.000  0.000  0.037
    3  0.000  0.000  0.005  0.002  0.000  0.000  0.000  0.000  0.000  0.007
    4  0.000  0.000  0.002  0.000  0.000  0.000  0.000  0.000  0.000  0.002
    5  0.000  0.000  0.025  0.002  0.000  0.000  0.000  0.000  0.000  0.027
    6  0.000  0.002  0.123  0.154  0.000  0.000  0.000  0.000  0.000  0.279
    7  0.000  0.000  0.000  0.001  0.000  0.000  0.000  0.000  0.000  0.001
    8  0.044  0.003  0.000  0.000  0.000  0.000  0.000  0.000  0.000  0.047
    9  0.082  0.001  0.001  0.002  0.000  0.000  0.000  0.000  0.000  0.085
   10  0.001  0.000  0.000  0.000  0.000  0.000  0.000  0.000  0.000  0.001
   11  0.000  0.000  0.000  0.000  0.000  0.000  0.000  0.000  0.000  0.000
   12  0.004  0.000  0.000  0.000  0.000  0.000  0.000  0.000  0.000  0.005
   13  0.000  0.000  0.000  0.000  0.000  0.000  0.000  0.000  0.000  0.001
   14  0.000  0.006  0.010  0.003  0.000  0.000  0.000  0.000  0.000  0.019
   15  0.000  0.000  0.006  0.034  0.000  0.000  0.000  0.000  0.000  0.041
tot    0.132  0.016  0.250  0.283  0.000  0.000  0.000  0.000  0.000  0.682
 
band    16 # energy   -9.57691002 # occ.  2.00000000
 
ion      s     py     pz     px    dxy    dyz    dz2    dxz  x2-y2    tot
    1  0.000  0.027  0.041  0.035  0.000  0.000  0.000  0.000  0.000  0.103
    2  0.001  0.000  0.002  0.008  0.000  0.000  0.000  0.000  0.000  0.011
    3  0.000  0.000  0.000  0.000  0.000  0.000  0.000  0.000  0.000  0.001
    4  0.000  0.000  0.049  0.024  0.000  0.000  0.000  0.000  0.000  0.074
    5  0.000  0.004  0.016  0.017  0.000  0.000  0.000  0.000  0.000  0.037
    6  0.000  0.027  0.062  0.032  0.000  0.000  0.000  0.000  0.000  0.120
    7  0.000  0.000  0.001  0.000  0.000  0.000  0.000  0.000  0.000  0.001
    8  0.065  0.003  0.000  0.000  0.000  0.000  0.000  0.000  0.000  0.068
    9  0.037  0.001  0.000  0.001  0.000  0.000  0.000  0.000  0.000  0.039
   10  0.000  0.000  0.000  0.000  0.000  0.000  0.000  0.000  0.000  0.001
   11  0.000  0.000  0.001  0.000  0.000  0.000  0.000  0.000  0.000  0.001
   12  0.000  0.000  0.000  0.000  0.000  0.000  0.000  0.000  0.000  0.000
   13  0.001  0.001  0.036  0.014  0.000  0.000  0.000  0.000  0.000  0.053
   14  0.002  0.001  0.052  0.053  0.000  0.000  0.000  0.000  0.000  0.109
   15  0.000  0.000  0.001  0.002  0.000  0.000  0.000  0.000  0.000  0.003
tot    0.107  0.064  0.262  0.189  0.000  0.000  0.000  0.000  0.000  0.621
 
band    17 # energy   -9.35163041 # occ.  2.00000000
 
ion      s     py     pz     px    dxy    dyz    dz2    dxz  x2-y2    tot
    1  0.000  0.108  0.014  0.034  0.000  0.000  0.000  0.000  0.000  0.156
    2  0.006  0.014  0.034  0.080  0.000  0.000  0.000  0.000  0.000  0.134
    3  0.005  0.013  0.000  0.000  0.000  0.000  0.000  0.000  0.000  0.018
    4  0.000  0.000  0.000  0.009  0.000  0.000  0.000  0.000  0.000  0.010
    5  0.003  0.018  0.036  0.039  0.000  0.000  0.000  0.000  0.000  0.096
    6  0.000  0.044  0.003  0.038  0.000  0.000  0.000  0.000  0.000  0.085
    7  0.000  0.001  0.000  0.000  0.000  0.000  0.000  0.000  0.000  0.001
    8  0.041  0.001  0.000  0.002  0.000  0.000  0.000  0.000  0.000  0.044
    9  0.015  0.000  0.001  0.000  0.000  0.000  0.000  0.000  0.000  0.017
   10  0.006  0.000  0.000  0.000  0.000  0.000  0.000  0.000  0.000  0.006
   11  0.004  0.000  0.000  0.000  0.000  0.000  0.000  0.000  0.000  0.004
   12  0.054  0.001  0.001  0.000  0.000  0.000  0.000  0.000  0.000  0.057
   13  0.000  0.001  0.007  0.003  0.000  0.000  0.000  0.000  0.000  0.011
   14  0.003  0.031  0.000  0.019  0.000  0.000  0.000  0.000  0.000  0.054
   15  0.001  0.002  0.027  0.016  0.000  0.000  0.000  0.000  0.000  0.046
tot    0.139  0.233  0.124  0.243  0.000  0.000  0.000  0.000  0.000  0.739
 
band    18 # energy   -8.95955427 # occ.  2.00000000
 
ion      s     py     pz     px    dxy    dyz    dz2    dxz  x2-y2    tot
    1  0.000  0.017  0.075  0.014  0.000  0.000  0.000  0.000  0.000  0.106
    2  0.004  0.018  0.000  0.019  0.000  0.000  0.000  0.000  0.000  0.041
    3  0.000  0.007  0.001  0.002  0.000  0.000  0.000  0.000  0.000  0.009
    4  0.007  0.003  0.012  0.005  0.000  0.000  0.000  0.000  0.000  0.026
    5  0.001  0.003  0.007  0.001  0.000  0.000  0.000  0.000  0.000  0.012
    6  0.000  0.288  0.046  0.083  0.000  0.000  0.000  0.000  0.000  0.417
    7  0.077  0.001  0.002  0.001  0.000  0.000  0.000  0.000  0.000  0.081
    8  0.004  0.000  0.001  0.000  0.000  0.000  0.000  0.000  0.000  0.005
    9  0.010  0.000  0.000  0.001  0.000  0.000  0.000  0.000  0.000  0.012
   10  0.000  0.000  0.000  0.000  0.000  0.000  0.000  0.000  0.000  0.001
   11  0.000  0.000  0.000  0.000  0.000  0.000  0.000  0.000  0.000  0.001
   12  0.005  0.000  0.000  0.000  0.000  0.000  0.000  0.000  0.000  0.005
   13  0.000  0.000  0.001  0.001  0.000  0.000  0.000  0.000  0.000  0.003
   14  0.005  0.021  0.006  0.002  0.000  0.000  0.000  0.000  0.000  0.035
   15  0.000  0.003  0.004  0.001  0.000  0.000  0.000  0.000  0.000  0.008
tot    0.114  0.360  0.155  0.130  0.000  0.000  0.000  0.000  0.000  0.760
 
band    19 # energy   -8.81065367 # occ.  2.00000000
 
ion      s     py     pz     px    dxy    dyz    dz2    dxz  x2-y2    tot
    1  0.000  0.115  0.046  0.011  0.000  0.000  0.000  0.000  0.000  0.173
    2  0.003  0.036  0.000  0.001  0.000  0.000  0.000  0.000  0.000  0.041
    3  0.001  0.034  0.002  0.006  0.000  0.000  0.000  0.000  0.000  0.043
    4  0.006  0.010  0.003  0.011  0.000  0.000  0.000  0.000  0.000  0.030
    5  0.002  0.000  0.010  0.007  0.000  0.000  0.000  0.000  0.000  0.019
    6  0.000  0.109  0.007  0.030  0.000  0.000  0.000  0.000  0.000  0.146
    7  0.122  0.000  0.003  0.002  0.000  0.000  0.000  0.000  0.000  0.127
    8  0.061  0.001  0.002  0.001  0.000  0.000  0.000  0.000  0.000  0.064
    9  0.020  0.000  0.000  0.002  0.000  0.000  0.000  0.000  0.000  0.022
   10  0.000  0.000  0.000  0.000  0.000  0.000  0.000  0.000  0.000  0.000
   11  0.002  0.000  0.000  0.000  0.000  0.000  0.000  0.000  0.000  0.002
   12  0.005  0.000  0.000  0.000  0.000  0.000  0.000  0.000  0.000  0.005
   13  0.000  0.008  0.000  0.000  0.000  0.000  0.000  0.000  0.000  0.009
   14  0.000  0.000  0.002  0.000  0.000  0.000  0.000  0.000  0.000  0.002
   15  0.013  0.010  0.016  0.016  0.000  0.000  0.000  0.000  0.000  0.055
tot    0.235  0.325  0.091  0.088  0.000  0.000  0.000  0.000  0.000  0.740
 
band    20 # energy   -7.88634714 # occ.  2.00000000
 
ion      s     py     pz     px    dxy    dyz    dz2    dxz  x2-y2    tot
    1  0.000  0.000  0.021  0.009  0.000  0.000  0.000  0.000  0.000  0.030
    2  0.000  0.000  0.014  0.006  0.000  0.000  0.000  0.000  0.000  0.020
    3  0.001  0.000  0.000  0.000  0.000  0.000  0.000  0.000  0.000  0.001
    4  0.000  0.001  0.035  0.024  0.000  0.000  0.000  0.000  0.000  0.060
    5  0.001  0.008  0.029  0.040  0.000  0.000  0.000  0.000  0.000  0.078
    6  0.000  0.000  0.004  0.002  0.000  0.000  0.000  0.000  0.000  0.006
    7  0.004  0.000  0.000  0.000  0.000  0.000  0.000  0.000  0.000  0.004
    8  0.011  0.001  0.000  0.000  0.000  0.000  0.000  0.000  0.000  0.012
    9  0.024  0.000  0.000  0.000  0.000  0.000  0.000  0.000  0.000  0.025
   10  0.000  0.000  0.002  0.001  0.000  0.000  0.000  0.000  0.000  0.003
   11  0.000  0.000  0.002  0.001  0.000  0.000  0.000  0.000  0.000  0.003
   12  0.000  0.000  0.000  0.000  0.000  0.000  0.000  0.000  0.000  0.001
   13  0.001  0.007  0.137  0.049  0.000  0.000  0.000  0.000  0.000  0.194
   14  0.000  0.000  0.002  0.005  0.000  0.000  0.000  0.000  0.000  0.008
   15  0.000  0.011  0.061  0.065  0.000  0.000  0.000  0.000  0.000  0.138
tot    0.041  0.030  0.308  0.204  0.000  0.000  0.000  0.000  0.000  0.584
 
band    21 # energy   -6.65741992 # occ.  2.00000000
 
ion      s     py     pz     px    dxy    dyz    dz2    dxz  x2-y2    tot
    1  0.000  0.001  0.010  0.006  0.000  0.000  0.000  0.000  0.000  0.016
    2  0.003  0.009  0.019  0.041  0.000  0.000  0.000  0.000  0.000  0.071
    3  0.010  0.000  0.027  0.006  0.000  0.000  0.000  0.000  0.000  0.043
    4  0.003  0.002  0.003  0.015  0.000  0.000  0.000  0.000  0.000  0.023
    5  0.011  0.002  0.016  0.002  0.000  0.000  0.000  0.000  0.000  0.031
    6  0.000  0.000  0.047  0.004  0.000  0.000  0.000  0.000  0.000  0.051
    7  0.001  0.000  0.000  0.000  0.000  0.000  0.000  0.000  0.000  0.001
    8  0.011  0.000  0.000  0.000  0.000  0.000  0.000  0.000  0.000  0.012
    9  0.017  0.000  0.000  0.000  0.000  0.000  0.000  0.000  0.000  0.017
   10  0.000  0.000  0.000  0.000  0.000  0.000  0.000  0.000  0.000  0.000
   11  0.000  0.000  0.000  0.000  0.000  0.000  0.000  0.000  0.000  0.001
   12  0.024  0.000  0.000  0.001  0.000  0.000  0.000  0.000  0.000  0.025
   13  0.000  0.002  0.008  0.003  0.000  0.000  0.000  0.000  0.000  0.014
   14  0.042  0.002  0.000  0.196  0.000  0.000  0.000  0.000  0.000  0.240
   15  0.017  0.018  0.058  0.004  0.000  0.000  0.000  0.000  0.000  0.097
tot    0.140  0.036  0.189  0.278  0.000  0.000  0.000  0.000  0.000  0.643
 
band    22 # energy   -6.13046282 # occ.  2.00000000
 
ion      s     py     pz     px    dxy    dyz    dz2    dxz  x2-y2    tot
    1  0.000  0.000  0.006  0.003  0.000  0.000  0.000  0.000  0.000  0.010
    2  0.002  0.004  0.052  0.005  0.000  0.000  0.000  0.000  0.000  0.063
    3  0.009  0.000  0.005  0.013  0.000  0.000  0.000  0.000  0.000  0.028
    4  0.002  0.002  0.005  0.009  0.000  0.000  0.000  0.000  0.000  0.019
    5  0.009  0.003  0.003  0.019  0.000  0.000  0.000  0.000  0.000  0.035
    6  0.000  0.004  0.000  0.029  0.000  0.000  0.000  0.000  0.000  0.034
    7  0.003  0.000  0.000  0.000  0.000  0.000  0.000  0.000  0.000  0.003
    8  0.002  0.000  0.000  0.000  0.000  0.000  0.000  0.000  0.000  0.003
    9  0.012  0.000  0.000  0.000  0.000  0.000  0.000  0.000  0.000  0.012
   10  0.000  0.000  0.000  0.000  0.000  0.000  0.000  0.000  0.000  0.001
   11  0.001  0.000  0.000  0.000  0.000  0.000  0.000  0.000  0.000  0.001
   12  0.035  0.000  0.001  0.000  0.000  0.000  0.000  0.000  0.000  0.036
   13  0.002  0.000  0.024  0.010  0.000  0.000  0.000  0.000  0.000  0.035
   14  0.027  0.013  0.206  0.003  0.000  0.000  0.000  0.000  0.000  0.249
   15  0.026  0.058  0.000  0.036  0.000  0.000  0.000  0.000  0.000  0.120
tot    0.130  0.085  0.304  0.129  0.000  0.000  0.000  0.000  0.000  0.649
 
band    23 # energy   -5.06102726 # occ.  2.00370773
 
ion      s     py     pz     px    dxy    dyz    dz2    dxz  x2-y2    tot