<?xml version="1.0" encoding="ISO-8859-1"?>
<modeling>
 <generator>
  <i name="program" type="string">vasp </i>
  <i name="version" type="string">6.4.1  </i>
  <i name="subversion" type="string">05Apr23 (build Jun 16 2023 21:25:53) gamma-only                       parallel </i>
  <i name="platform" type="string">LinuxIFC </i>
  <i name="date" type="string">2024 07 14 </i>
  <i name="time" type="string">19:19:51 </i>
 </generator>
 <incar>
  <i type="string" name="SYSTEM">Cluster</i>
  <i type="string" name="ALGO">V</i>
  <i type="int" name="NELM">   150</i>
  <i type="int" name="NELMDL">   -20</i>
  <i type="int" name="NELMIN">     6</i>
  <i type="int" name="IBRION">     0</i>
  <i name="EDIFF">      0.00001000</i>
  <i name="EDIFFG">     -0.02000000</i>
  <i type="int" name="NSW">   300</i>
  <i type="int" name="ISIF">     2</i>
  <i type="int" name="ISYM">     0</i>
  <i type="int" name="NBLOCK">     1</i>
  <i name="ENCUT">    500.00000000</i>
  <i name="POTIM">      1.00000000</i>
  <i name="TEBEG">    500.00000000</i>
  <i name="TEEND">    500.00000000</i>
  <i name="SMASS">      0.00000000</i>
  <i type="string" name="LREAL">Auto</i>
  <i type="int" name="ISMEAR">     1</i>
  <i name="SIGMA">      0.10000000</i>
  <i type="logical" name="LWAVE"> F  </i>
  <i type="logical" name="LCHARG"> F  </i>
  <i type="int" name="LORBIT">    11</i>
  <i type="int" name="MDALGO">     2</i>
 </incar>
 <primitive_cell>
  <structure name="primitive_cell" >
   <crystal>
    <varray name="basis" >
     <v>       7.74550000       0.00000000       0.00000000 </v>
     <v>       0.00000000      11.75610000       0.00000000 </v>
     <v>       0.00000000       0.00000000      11.18000000 </v>
    </varray>
    <i name="volume">   1018.01583511 </i>
    <varray name="rec_basis" >
     <v>       0.12910722       0.00000000       0.00000000 </v>
     <v>       0.00000000       0.08506222       0.00000000 </v>
     <v>       0.00000000       0.00000000       0.08944544 </v>
    </varray>
   </crystal>
   <varray name="positions" >
    <v>       0.50754907       0.70929817       0.55060954 </v>
    <v>       0.50318367       0.58190929       0.54823612 </v>
    <v>       0.51645886       0.52036230       0.44323973 </v>
    <v>       0.51175356       0.40067579       0.44528865 </v>
    <v>       0.48231691       0.41217685       0.64776480 </v>
    <v>       0.53544138       0.57309403       0.33406092 </v>
    <v>       0.52502934       0.74531084       0.46099871 </v>
    <v>       0.38663755       0.74168239       0.58926856 </v>
    <v>       0.61322892       0.73787841       0.60896799 </v>
    <v>       0.56287365       0.37721138       0.26719900 </v>
    <v>       0.54256565       0.25415849       0.35219507 </v>
    <v>       0.46879489       0.36724622       0.73294132 </v>
    <v>       0.51996910       0.33853761       0.34247225 </v>
    <v>       0.49491971       0.34632338       0.55039420 </v>
    <v>       0.48525864       0.52550922       0.65350984 </v>
   </varray>
  </structure>
  <varray name="primitive_index" >
   <v type="int" >        1 </v>
   <v type="int" >        2 </v>
   <v type="int" >        3 </v>
   <v type="int" >        4 </v>
   <v type="int" >        5 </v>
   <v type="int" >        6 </v>
   <v type="int" >        7 </v>
   <v type="int" >        8 </v>
   <v type="int" >        9 </v>
   <v type="int" >       10 </v>
   <v type="int" >       11 </v>
   <v type="int" >       12 </v>
   <v type="int" >       13 </v>
   <v type="int" >       14 </v>
   <v type="int" >       15 </v>
  </varray>
 </primitive_cell>
 <kpoints>
  <generation param="Gamma">
   <v type="int" name="divisions">       1        1        1 </v>
   <v name="usershift">      0.00000000       0.00000000       0.00000000 </v>
   <v name="genvec1">      1.00000000       0.00000000       0.00000000 </v>
   <v name="genvec2">      0.00000000       1.00000000       0.00000000 </v>
   <v name="genvec3">      0.00000000       0.00000000       1.00000000 </v>
   <v name="shift">      0.00000000       0.00000000       0.00000000 </v>
  </generation>
  <varray name="kpointlist" >
   <v>       0.00000000       0.00000000       0.00000000 </v>
  </varray>
  <varray name="weights" >
   <v>       1.00000000 </v>
  </varray>
 </kpoints>
 <parameters>
  <separator name="general" >
   <i type="string" name="SYSTEM">Cluster</i>
   <i type="logical" name="LCOMPAT"> F  </i>
  </separator>
  <separator name="electronic" >
   <i type="string" name="PREC">normal</i>
   <i name="ENMAX">    500.00000000</i>
   <i name="ENAUG">    644.87300000</i>
   <i name="EDIFF">      0.00001000</i>
   <i type="int" name="IALGO">    48</i>
   <i type="int" name="IWAVPR">    12</i>
   <i type="int" name="NBANDS">    32</i>
   <i type="int" name="NBANDSLOW">    -1</i>
   <i type="int" name="NBANDSHIGH">    -1</i>
   <i name="NELECT">     48.00000000</i>
   <i type="int" name="TURBO">     0</i>
   <i type="int" name="IRESTART">     0</i>
   <i type="int" name="NREBOOT">     0</i>
   <i type="int" name="NMIN">     0</i>
   <i name="EREF">      0.00000000</i>
   <separator name="electronic smearing" >
    <i type="int" name="ISMEAR">     1</i>
    <i name="SIGMA">      0.10000000</i>
    <i name="KSPACING">      0.50000000</i>
    <i type="logical" name="KGAMMA"> T  </i>
    <i type="logical" name="KBLOWUP"> T  </i>
   </separator>
   <separator name="electronic projectors" >
    <i type="logical" name="LREAL"> T  </i>
    <v name="ROPT">     -0.00050000     -0.00050000     -0.00050000     -0.00050000</v>
    <i type="int" name="LMAXPAW">  -100</i>
    <i type="int" name="LMAXMIX">     2</i>
    <i type="logical" name="NLSPLINE"> F  </i>
   </separator>
   <separator name="electronic startup" >
    <i type="int" name="ISTART">     0</i>
    <i type="int" name="ICHARG">     2</i>
    <i type="int" name="INIWAV">     1</i>
   </separator>
   <separator name="electronic spin" >
    <i type="int" name="ISPIN">     1</i>
    <i type="logical" name="LNONCOLLINEAR"> F  </i>
    <v name="MAGMOM">      1.00000000      1.00000000      1.00000000      1.00000000      1.00000000      1.00000000      1.00000000      1.00000000      1.00000000      1.00000000      1.00000000      1.00000000      1.00000000      1.00000000      1.00000000</v>
    <i name="NUPDOWN">     -1.00000000</i>
    <i type="logical" name="LSORBIT"> F  </i>
    <v name="SAXIS">      0.00000000      0.00000000      1.00000000</v>
    <i type="logical" name="LSPIRAL"> F  </i>
    <v name="QSPIRAL">      0.00000000      0.00000000      0.00000000</v>
    <i type="logical" name="LZEROZ"> F  </i>
   </separator>
   <separator name="electronic exchange-correlation" >
    <i type="logical" name="LASPH"> F  </i>
    <i type="logical" name="LMETAGGA"> F  </i>
   </separator>
   <separator name="electronic convergence" >
    <i type="int" name="NELM">   150</i>
    <i type="int" name="NELMDL">   -20</i>
    <i type="int" name="NELMIN">     6</i>
    <i name="ENINI">    500.00000000</i>
    <separator name="electronic convergence detail" >
     <i type="logical" name="LDIAG"> T  </i>
     <i type="logical" name="LSUBROT"> F  </i>
     <i name="WEIMIN">      0.00100000</i>
     <i name="EBREAK">      0.00000008</i>
     <i name="DEPER">      0.30000000</i>
     <i type="int" name="NRMM">     4</i>
     <i name="TIME">      0.40000000</i>
    </separator>
   </separator>
   <separator name="electronic mixer" >
    <i name="AMIX">      0.40000000</i>
    <i name="BMIX">      1.00000000</i>
    <i name="AMIN">      0.10000000</i>
    <i name="AMIX_MAG">      1.60000000</i>
    <i name="BMIX_MAG">      1.00000000</i>
    <separator name="electronic mixer details" >
     <i type="int" name="IMIX">     4</i>
     <i type="logical" name="MIXFIRST"> F  </i>
     <i type="int" name="MAXMIX">   -45</i>
     <i name="WC">    100.00000000</i>
     <i type="int" name="INIMIX">     1</i>
     <i type="int" name="MIXPRE">     1</i>
     <i type="int" name="MREMOVE">     5</i>
    </separator>
   </separator>
   <separator name="electronic dipolcorrection" >
    <i type="logical" name="LDIPOL"> F  </i>
    <i type="logical" name="LMONO"> F  </i>
    <i type="int" name="IDIPOL">     0</i>
    <i name="EPSILON">      1.00000000</i>
    <v name="DIPOL">   -100.00000000   -100.00000000   -100.00000000</v>
    <i name="EFIELD">      0.00000000</i>
   </separator>
  </separator>
  <separator name="grids" >
   <i type="int" name="NGX">    42</i>
   <i type="int" name="NGY">    64</i>
   <i type="int" name="NGZ">    64</i>
   <i type="int" name="NGXF">    84</i>
   <i type="int" name="NGYF">   128</i>
   <i type="int" name="NGZF">   128</i>
   <i type="logical" name="ADDGRID"> F  </i>
  </separator>
  <separator name="ionic" >
   <i type="int" name="NSW">   300</i>
   <i type="int" name="IBRION">     0</i>
   <i type="int" name="MDALGO">     2</i>
   <i type="int" name="ISIF">     2</i>
   <i name="PSTRESS">      0.00000000</i>
   <i name="EDIFFG">     -0.02000000</i>
   <i type="int" name="NFREE">     0</i>
   <i name="POTIM">      1.00000000</i>
   <i name="SMASS">      0.02359105</i>
   <i name="SCALEE">      1.00000000</i>
  </separator>
  <separator name="ionic md" >
   <i name="TEBEG">    500.00000000</i>
   <i name="TEEND">    500.00000000</i>
   <i type="int" name="NBLOCK">     1</i>
   <i type="int" name="KBLOCK">   300</i>
   <i type="int" name="NPACO">   256</i>
   <i name="APACO">     10.00000000</i>
  </separator>
  <separator name="symmetry" >
   <i type="int" name="ISYM">     0</i>
   <i name="SYMPREC">      0.00001000</i>
  </separator>
  <separator name="dos" >
   <i type="int" name="LORBIT">    11</i>
   <v name="RWIGS">     -1.00000000     -1.00000000     -1.00000000     -1.00000000</v>
   <i type="int" name="NEDOS">   301</i>
   <i name="EMIN">     10.00000000</i>
   <i name="EMAX">    -10.00000000</i>
   <i name="EFERMI">      0.00000000</i>
  </separator>
  <separator name="writing" >
   <i type="int" name="NWRITE">     2</i>
   <i type="logical" name="LWAVE"> F  </i>
   <i type="logical" name="LDOWNSAMPLE"> F  </i>
   <i type="logical" name="LCHARG"> F  </i>
   <i type="logical" name="LPARD"> F  </i>
   <i type="logical" name="LVTOT"> F  </i>
   <i type="logical" name="LVHAR"> F  </i>
   <i type="logical" name="LELF"> F  </i>
   <i type="logical" name="LOPTICS"> F  </i>
   <v name="STM">      0.00000000      0.00000000      0.00000000      0.00000000      0.00000000      0.00000000      0.00000000</v>
  </separator>
  <separator name="performance" >
   <i type="int" name="NPAR">     4</i>
   <i type="int" name="NSIM">     4</i>
   <i type="int" name="NBLK">    -1</i>
   <i type="logical" name="LPLANE"> T  </i>
   <i type="logical" name="LSCALAPACK"> T  </i>
   <i type="logical" name="LSCAAWARE"> F  </i>
   <i type="logical" name="LSCALU"> F  </i>
   <i type="logical" name="LASYNC"> F  </i>
   <i type="logical" name="LORBITALREAL"> F  </i>
  </separator>
  <separator name="miscellaneous" >
   <i type="int" name="IDIOT">     3</i>
   <i type="int" name="PHON_NSTRUCT">    -1</i>
   <i type="logical" name="LMUSIC"> F  </i>
   <v name="POMASS">     12.01100000     18.99800000      1.00000000     14.00100000</v>
   <v name="DARWINR">      0.00000000      0.00000000      0.00000000      0.00000000</v>
   <v name="DARWINV">      1.00000000      1.00000000      1.00000000      1.00000000</v>
   <i type="logical" name="LCORR"> T  </i>
  </separator>
  <i type="logical" name="GGA_COMPAT"> T  </i>
  <i type="logical" name="LBERRY"> F  </i>
  <i type="int" name="ICORELEVEL">     0</i>
  <i type="logical" name="LDAU"> F  </i>
  <i type="int" name="I_CONSTRAINED_M">     0</i>
  <separator name="electronic exchange-correlation" >
   <i type="string" name="GGA">--</i>
   <i type="int" name="VOSKOWN">     0</i>
   <i type="logical" name="LHFCALC"> F  </i>
   <i type="string" name="PRECFOCK"></i>
   <i type="logical" name="LSYMGRAD"> F  </i>
   <i type="logical" name="LHFONE"> F  </i>
   <i type="logical" name="LRHFCALC"> F  </i>
   <i type="logical" name="LTHOMAS"> F  </i>
   <i type="logical" name="LMODELHF"> F  </i>
   <i type="logical" name="LFOCKACE"> F  </i>
   <i name="ENCUT4O">     -1.00000000</i>
   <i type="int" name="EXXOEP">     0</i>
   <i type="int" name="FOURORBIT">     0</i>
   <i name="AEXX">      0.00000000</i>
   <i name="HFALPHA">      0.00000000</i>
   <i name="MCALPHA">      0.00000000</i>
   <i name="ALDAX">      1.00000000</i>
   <i name="AGGAX">      1.00000000</i>
   <i name="ALDAC">      1.00000000</i>
   <i name="AGGAC">      1.00000000</i>
   <i type="int" name="NKREDX">     1</i>
   <i type="int" name="NKREDY">     1</i>
   <i type="int" name="NKREDZ">     1</i>
   <i type="logical" name="SHIFTRED"> F  </i>
   <i type="logical" name="ODDONLY"> F  </i>
   <i type="logical" name="EVENONLY"> F  </i>
   <i type="int" name="LMAXFOCK">     0</i>
   <i type="int" name="NMAXFOCKAE">     0</i>
   <i type="logical" name="LFOCKAEDFT"> F  </i>
   <i name="HFSCREEN">      0.00000000</i>
   <i name="HFSCREENC">      0.00000000</i>
   <i type="int" name="NBANDSGWLOW">     0</i>
  </separator>
  <separator name="vdW DFT" >
   <i type="logical" name="LUSE_VDW"> F  </i>
   <i type="int" name="IVDW_NL">     1</i>
   <i type="logical" name="LSPIN_VDW"> F  </i>
   <i name="Zab_VDW">     -0.84910000</i>
   <i name="PARAM1">      0.12340000</i>
   <i name="PARAM2">      1.00000000</i>
   <i name="PARAM3">      0.00000000</i>
  </separator>
  <separator name="model GW" >
   <i type="int" name="MODEL_GW">     0</i>
   <i name="MODEL_EPS0">     40.72063340</i>
   <i name="MODEL_ALPHA">      1.00000000</i>
  </separator>
  <separator name="linear response parameters" >
   <i type="logical" name="LEPSILON"> F  </i>
   <i type="logical" name="LRPA"> F  </i>
   <i type="logical" name="LNABLA"> F  </i>
   <i type="logical" name="LVEL"> F  </i>
   <i name="CSHIFT">      0.10000000</i>
   <i name="OMEGAMAX">     -1.00000000</i>
   <i name="DEG_THRESHOLD">      0.00200000</i>
   <i name="RTIME">     -0.10000000</i>
   <i name="WPLASMAI">      0.00000000</i>
   <v name="DFIELD">      0.00000000      0.00000000      0.00000000</v>
   <v name="WPLASMA">      0.00000000      0.00000000      0.00000000      0.00000000      0.00000000      0.00000000      0.00000000      0.00000000      0.00000000</v>
  </separator>
  <separator name="orbital magnetization" >
   <i type="logical" name="NUCIND"> F  </i>
   <v name="MAGPOS">      0.00000000      0.00000000      0.00000000</v>
   <i type="logical" name="LNICSALL"> T  </i>
   <i type="logical" name="ORBITALMAG"> F  </i>
   <i type="logical" name="LMAGBLOCH"> F  </i>
   <i type="logical" name="LCHIMAG"> F  </i>
   <i type="logical" name="LGAUGE"> T  </i>
   <i type="int" name="MAGATOM">     0</i>
   <v name="MAGDIPOL">      0.00000000      0.00000000      0.00000000</v>
   <v name="AVECCONST">      0.00000000      0.00000000      0.00000000</v>
  </separator>
  <separator name="response functions" >
   <i type="logical" name="LALL_IN_ONE"> F  </i>
   <i type="int" name="IALL_IN_ONE">    -1</i>
   <i type="int" name="NBANDS_WAVE">    -1</i>
   <i type="logical" name="LFINITE_TEMPERATURE"> F  </i>
   <i type="logical" name="LADDER"> F  </i>
   <i type="logical" name="LRPAFORCE"> F  </i>
   <i type="logical" name="LFXC"> F  </i>
   <i type="logical" name="LHARTREE"> T  </i>
   <i type="int" name="IBSE">     0</i>
   <v type="int" name="KPOINT">    -1     0     0     0</v>
   <i type="logical" name="LTCTC"> F  </i>
   <i type="logical" name="LTCTE"> F  </i>
   <i type="logical" name="LTETE"> F  </i>
   <i type="logical" name="LTRIPLET"> F  </i>
   <i type="logical" name="LFXCEPS"> F  </i>
   <i type="logical" name="LFXHEG"> F  </i>
   <i type="int" name="NATURALO">     2</i>
   <i type="logical" name="LHOLEGF"> F  </i>
   <i type="logical" name="L2ORDER"> F  </i>
   <i type="logical" name="LDMP1"> F  </i>
   <i type="logical" name="LMP2LT"> F  </i>
   <i type="logical" name="LSMP2LT"> F  </i>
   <i type="logical" name="LGWLF"> F  </i>
   <i name="ENCUTGW">     -1.60000002</i>
   <i name="ENCUTGWSOFT">     -1.60000002</i>
   <i name="ENCUTLF">     -1.00000000</i>
   <i type="logical" name="LESF_SPLINES"> F  </i>
   <i type="int" name="LMAXMP2">    -1</i>
   <i name="SCISSOR">      0.00000000</i>
   <i type="int" name="NOMEGA">     0</i>
   <i type="int" name="NOMEGAR">     0</i>
   <i type="int" name="NBANDSGW">    -1</i>
   <i type="int" name="NBANDSO">    -1</i>
   <i type="int" name="NBANDSV">    -1</i>
   <i type="int" name="NELMGW">     1</i>
   <i type="int" name="NELMHF">     1</i>
   <i type="int" name="DIM">     3</i>
   <i type="int" name="IESPILON">     4</i>
   <i type="int" name="ANTIRES">     0</i>
   <i name="OMEGAMAX">    -30.00000000</i>
   <i name="OMEGAMIN">    -30.00000000</i>
   <i name="OMEGATL">   -200.00000000</i>
   <i type="int" name="OMEGAGRID">     0</i>
   <i name="CSHIFT">     -0.10000000</i>
   <i type="logical" name="LSELFENERGY"> F  </i>
   <i type="logical" name="LSPECTRAL"> F  </i>
   <i type="logical" name="LSPECTRALGW"> F  </i>
   <i type="logical" name="LSINGLES"> F  </i>
   <i type="logical" name="LFERMIGW"> F  </i>
   <i type="logical" name="ODDONLYGW"> F  </i>
   <i type="logical" name="EVENONLYGW"> F  </i>
   <i type="int" name="NKREDLFX">     1</i>
   <i type="int" name="NKREDLFY">     1</i>
   <i type="int" name="NKREDLFZ">     1</i>
   <i type="int" name="MAXMEM">  2800</i>
   <i type="int" name="TELESCOPE">     0</i>
   <i type="int" name="NTAUPAR">    -1</i>
   <i type="int" name="NOMEGAPAR">    -1</i>
   <i name="DAMP_NEWTON">      0.80000001</i>
   <i name="LAMBDA">      1.00000000</i>
  </separator>
  <separator name="External order field" >
   <i name="OFIELD_KAPPA">      0.00000000</i>
   <v name="OFIELD_K">      0.00000000      0.00000000      0.00000000</v>
   <i name="OFIELD_Q6_NEAR">      0.00000000</i>
   <i name="OFIELD_Q6_FAR">      0.00000000</i>
   <i name="OFIELD_A">      0.00000000</i>
  </separator>
  <separator name="optional k-points parameters" >
   <i type="int" name="KPOINTS_OPT_MODE">     1</i>
   <i type="logical" name="LKPOINTS_OPT"> F  </i>
  </separator>
  <separator name="solvation model" >
   <i type="logical" name="LSOL"> F  </i>
  </separator>
 </parameters>
 <atominfo>
  <atoms>      15 </atoms>
  <types>       4 </types>
  <array name="atoms" >
   <dimension dim="1">ion</dimension>
   <field type="string">element</field>
   <field type="int">atomtype</field>
   <set>
    <rc><c>C </c><c>   1</c></rc>
    <rc><c>C </c><c>   1</c></rc>
    <rc><c>C </c><c>   1</c></rc>
    <rc><c>C </c><c>   1</c></rc>
    <rc><c>C </c><c>   1</c></rc>
    <rc><c>F </c><c>   2</c></rc>
    <rc><c>H </c><c>   3</c></rc>
    <rc><c>H </c><c>   3</c></rc>
    <rc><c>H </c><c>   3</c></rc>
    <rc><c>H </c><c>   3</c></rc>
    <rc><c>H </c><c>   3</c></rc>
    <rc><c>H </c><c>   3</c></rc>
    <rc><c>N </c><c>   4</c></rc>
    <rc><c>N </c><c>   4</c></rc>
    <rc><c>N </c><c>   4</c></rc>
   </set>
  </array>
  <array name="atomtypes" >
   <dimension dim="1">type</dimension>
   <field type="int">atomspertype</field>
   <field type="string">element</field>
   <field>mass</field>
   <field>valence</field>
   <field type="string">pseudopotential</field>
   <set>
    <rc><c>   5</c><c>C </c><c>     12.01100000</c><c>      4.00000000</c><c>  PAW_PBE C 08Apr2002                   </c></rc>
    <rc><c>   1</c><c>F </c><c>     18.99800000</c><c>      7.00000000</c><c>  PAW_PBE F 08Apr2002                   </c></rc>
    <rc><c>   6</c><c>H </c><c>      1.00000000</c><c>      1.00000000</c><c>  PAW_PBE H 15Jun2001                   </c></rc>
    <rc><c>   3</c><c>N </c><c>     14.00100000</c><c>      5.00000000</c><c>  PAW_PBE N 08Apr2002                   </c></rc>
   </set>
  </array>
 </atominfo>
 <structure name="initialpos" >
  <crystal>
   <varray name="basis" >
    <v>       7.74550000       0.00000000       0.00000000 </v>
    <v>       0.00000000      11.75610000       0.00000000 </v>
    <v>       0.00000000       0.00000000      11.18000000 </v>
   </varray>
   <i name="volume">   1018.01583511 </i>
   <varray name="rec_basis" >
    <v>       0.12910722       0.00000000       0.00000000 </v>
    <v>       0.00000000       0.08506222       0.00000000 </v>
    <v>       0.00000000       0.00000000       0.08944544 </v>
   </varray>
  </crystal>
  <varray name="positions" >
   <v>       0.50754907       0.70929817       0.55060954 </v>
   <v>       0.50318367       0.58190929       0.54823612 </v>
   <v>       0.51645886       0.52036230       0.44323973 </v>
   <v>       0.51175356       0.40067579       0.44528865 </v>
   <v>       0.48231691       0.41217685       0.64776480 </v>
   <v>       0.53544138       0.57309403       0.33406092 </v>
   <v>       0.52502934       0.74531084       0.46099871 </v>
   <v>       0.38663755       0.74168239       0.58926856 </v>
   <v>       0.61322892       0.73787841       0.60896799 </v>
   <v>       0.56287365       0.37721138       0.26719900 </v>
   <v>       0.54256565       0.25415849       0.35219507 </v>
   <v>       0.46879489       0.36724622       0.73294132 </v>
   <v>       0.51996910       0.33853761       0.34247225 </v>
   <v>       0.49491971       0.34632338       0.55039420 </v>
   <v>       0.48525864       0.52550922       0.65350984 </v>
  </varray>
  <varray name="velocities" >
   <v>      -0.00062807      -0.00037567       0.00034357 </v>
   <v>      -0.00182160      -0.00034140      -0.00019684 </v>
   <v>      -0.00054910       0.00050066       0.00073345 </v>
   <v>      -0.00019274       0.00016916      -0.00035976 </v>
   <v>      -0.00014202      -0.00000948      -0.00035219 </v>
   <v>       0.00095629       0.00039108       0.00027898 </v>
   <v>       0.00084334       0.00087187      -0.00225955 </v>
   <v>       0.00191986      -0.00143341       0.00094398 </v>
   <v>       0.00033716       0.00085978      -0.00204227 </v>
   <v>      -0.00290949      -0.00157727      -0.00054949 </v>
   <v>       0.00109930      -0.00297858      -0.00319270 </v>
   <v>       0.00692957      -0.00136172      -0.00031573 </v>
   <v>       0.00021379      -0.00055568       0.00024017 </v>
   <v>      -0.00009071       0.00041425       0.00012136 </v>
   <v>       0.00085196       0.00006080      -0.00035474 </v>
  </varray>
 </structure>
 <calculation>
  <scstep>
   <time name="diag">    0.07    0.08</time>
   <time name="diis">    0.13    0.13</time>
   <time name="orth">    0.00    0.00</time>
   <time name="total">    0.44    0.45</time>
   <energy>
    <i name="alphaZ">      9.76196320 </i>
    <i name="ewald">   1923.67742100 </i>
    <i name="hartreedc">  -3657.19230746 </i>
    <i name="XCdc">    175.74554655 </i>
    <i name="pawpsdc">   1709.42040191 </i>
    <i name="pawaedc">  -1720.99522934 </i>
    <i name="eentropy">      0.00580281 </i>
    <i name="bandstr">    161.26708478 </i>
    <i name="atom">   2263.87730879 </i>
    <i name="e_fr_energy">    865.56799225 </i>
    <i name="e_wo_entrp">    865.56218944 </i>
    <i name="e_0_energy">    865.56605798 </i>
   </energy>
  </scstep>
  <scstep>
   <time name="diag">    0.06    0.07</time>
   <time name="diis">    0.13    0.13</time>
   <time name="orth">    0.00    0.00</time>
   <time name="total">    0.19    0.20</time>
   <energy>
    <i name="e_fr_energy">    448.74662382 </i>
    <i name="e_wo_entrp">    448.73436695 </i>
    <i name="e_0_energy">    448.74253820 </i>
   </energy>
  </scstep>
  <scstep>
   <time name="diag">    0.05    0.06</time>
   <time name="diis">    0.13    0.14</time>
   <time name="orth">    0.00    0.00</time>
   <time name="total">    0.19    0.20</time>
   <energy>
    <i name="e_fr_energy">    264.29797374 </i>
    <i name="e_wo_entrp">    264.33208536 </i>
    <i name="e_0_energy">    264.30934428 </i>
   </energy>
  </scstep>
  <scstep>
   <time name="diag">    0.04    0.04</time>
   <time name="diis">    0.12    0.12</time>
   <time name="orth">    0.00    0.00</time>
   <time name="total">    0.16    0.17</time>
   <energy>
    <i name="e_fr_energy">    103.34896874 </i>
    <i name="e_wo_entrp">    103.34317081 </i>
    <i name="e_0_energy">    103.34703610 </i>
   </energy>
  </scstep>
  <scstep>
   <time name="diag">    0.06    0.06</time>
   <time name="diis">    0.09    0.09</time>
   <time name="orth">    0.00    0.00</time>
   <time name="total">    0.15    0.15</time>
   <energy>
    <i name="e_fr_energy">      3.47163430 </i>
    <i name="e_wo_entrp">      3.44952483 </i>
    <i name="e_0_energy">      3.46426448 </i>
   </energy>
  </scstep>
  <scstep>
   <time name="diag">    0.06    0.06</time>
   <time name="diis">    0.13    0.13</time>
   <time name="orth">    0.00    0.00</time>
   <time name="total">    0.19    0.19</time>
   <energy>
    <i name="e_fr_energy">    -60.69415804 </i>
    <i name="e_wo_entrp">    -60.69995595 </i>
    <i name="e_0_energy">    -60.69609068 </i>
   </energy>
  </scstep>
  <scstep>
   <time name="diag">    0.06    0.06</time>
   <time name="diis">    0.16    0.16</time>
   <time name="orth">    0.00    0.00</time>
   <time name="total">    0.22    0.22</time>
   <energy>
    <i name="e_fr_energy">    -90.36035977 </i>
    <i name="e_wo_entrp">    -90.36615768 </i>
    <i name="e_0_energy">    -90.36229241 </i>
   </energy>
  </scstep>
  <scstep>
   <time name="diag">    0.07    0.07</time>
   <time name="diis">    0.16    0.16</time>
   <time name="orth">    0.00    0.00</time>
   <time name="total">    0.23    0.23</time>
   <energy>
    <i name="e_fr_energy">   -100.97476776 </i>
    <i name="e_wo_entrp">   -100.98056566 </i>
    <i name="e_0_energy">   -100.97670039 </i>
   </energy>
  </scstep>
  <scstep>
   <time name="diag">    0.06    0.06</time>
   <time name="diis">    0.13    0.13</time>
   <time name="orth">    0.00    0.00</time>
   <time name="total">    0.19    0.19</time>
   <energy>
    <i name="e_fr_energy">   -103.37665654 </i>
    <i name="e_wo_entrp">   -103.38245445 </i>
    <i name="e_0_energy">   -103.37858918 </i>
   </energy>
  </scstep>
  <scstep>
   <time name="diag">    0.06    0.07</time>
   <time name="diis">    0.14    0.15</time>
   <time name="orth">    0.00    0.00</time>
   <time name="total">    0.21    0.22</time>
   <energy>
    <i name="e_fr_energy">   -104.23392364 </i>
    <i name="e_wo_entrp">   -104.23972155 </i>
    <i name="e_0_energy">   -104.23585628 </i>
   </energy>
  </scstep>
  <scstep>
   <time name="diag">    0.07    0.07</time>
   <time name="diis">    0.16    0.16</time>
   <time name="orth">    0.00    0.00</time>
   <time name="total">    0.23    0.24</time>
   <energy>
    <i name="e_fr_energy">   -104.48928198 </i>
    <i name="e_wo_entrp">   -104.49507988 </i>
    <i name="e_0_energy">   -104.49121461 </i>
   </energy>
  </scstep>
  <scstep>
   <time name="diag">    0.07    0.07</time>
   <time name="diis">    0.13    0.13</time>
   <time name="orth">    0.00    0.00</time>
   <time name="total">    0.20    0.20</time>
   <energy>
    <i name="e_fr_energy">   -104.58560052 </i>
    <i name="e_wo_entrp">   -104.59139842 </i>
    <i name="e_0_energy">   -104.58753315 </i>
   </energy>
  </scstep>
  <scstep>
   <time name="diag">    0.04    0.04</time>
   <time name="diis">    0.13    0.13</time>
   <time name="orth">    0.00    0.02</time>
   <time name="total">    0.17    0.20</time>
   <energy>
    <i name="e_fr_energy">   -104.62223671 </i>
    <i name="e_wo_entrp">   -104.62803461 </i>
    <i name="e_0_energy">   -104.62416934 </i>
   </energy>
  </scstep>
  <scstep>
   <time name="diag">    0.07    0.07</time>
   <time name="diis">    0.16    0.16</time>
   <time name="orth">    0.00    0.00</time>
   <time name="total">    0.23    0.24</time>
   <energy>
    <i name="e_fr_energy">   -104.63769090 </i>
    <i name="e_wo_entrp">   -104.64348881 </i>
    <i name="e_0_energy">   -104.63962354 </i>
   </energy>
  </scstep>
  <scstep>
   <time name="diag">    0.07    0.07</time>
   <time name="diis">    0.26    0.27</time>
   <time name="orth">    0.00    0.00</time>
   <time name="total">    0.33    0.34</time>
   <energy>
    <i name="e_fr_energy">   -104.64827861 </i>
    <i name="e_wo_entrp">   -104.65407651 </i>
    <i name="e_0_energy">   -104.65021124 </i>
   </energy>
  </scstep>
  <scstep>
   <time name="diag">    0.04    0.04</time>
   <time name="diis">    0.28    0.29</time>
   <time name="orth">    0.00    0.00</time>
   <time name="total">    0.33    0.33</time>
   <energy>
    <i name="e_fr_energy">   -104.64922927 </i>
    <i name="e_wo_entrp">   -104.65502717 </i>
    <i name="e_0_energy">   -104.65116190 </i>
   </energy>
  </scstep>
  <scstep>
   <time name="diag">    0.07    0.07</time>
   <time name="diis">    0.30    0.31</time>
   <time name="orth">    0.00    0.00</time>
   <time name="total">    0.37    0.38</time>
   <energy>
    <i name="e_fr_energy">   -104.64930118 </i>
    <i name="e_wo_entrp">   -104.65509909 </i>
    <i name="e_0_energy">   -104.65123382 </i>
   </energy>
  </scstep>
  <scstep>
   <time name="diag">    0.04    0.04</time>
   <time name="diis">    0.21    0.21</time>
   <time name="orth">    0.00    0.00</time>
   <time name="total">    0.25    0.26</time>
   <energy>
    <i name="e_fr_energy">   -104.64930725 </i>
    <i name="e_wo_entrp">   -104.65510515 </i>
    <i name="e_0_energy">   -104.65123988 </i>
   </energy>
  </scstep>
  <scstep>
   <time name="diag">    0.06    0.06</time>
   <time name="diis">    0.19    0.19</time>
   <time name="orth">    0.00    0.00</time>
   <time name="total">    0.26    0.26</time>
   <energy>
    <i name="e_fr_energy">   -104.64930792 </i>
    <i name="e_wo_entrp">   -104.65510583 </i>
    <i name="e_0_energy">   -104.65124056 </i>
   </energy>
  </scstep>
  <scstep>
   <time name="diag">    0.07    0.07</time>
   <time name="diis">    0.15    0.15</time>
   <time name="orth">    0.00    0.00</time>
   <time name="total">    0.25    0.26</time>
   <energy>
    <i name="e_fr_energy">   -104.64930813 </i>
    <i name="e_wo_entrp">   -104.65510603 </i>
    <i name="e_0_energy">   -104.65124076 </i>
   </energy>
  </scstep>
  <scstep>
   <time name="diag">    0.08    0.08</time>
   <time name="diis">    0.44    0.44</time>
   <time name="orth">    0.00    0.00</time>
   <time name="total">    0.78    0.79</time>
   <energy>
    <i name="e_fr_energy">    -97.71789502 </i>
    <i name="e_wo_entrp">    -97.72369292 </i>
    <i name="e_0_energy">    -97.71982765 </i>
   </energy>
  </scstep>
  <scstep>
   <time name="diag">    0.05    0.05</time>
   <time name="diis">    0.37    0.38</time>
   <time name="orth">    0.00    0.00</time>
   <time name="total">    0.67    0.69</time>
   <energy>
    <i name="e_fr_energy">    -96.32149674 </i>
    <i name="e_wo_entrp">    -96.32769281 </i>
    <i name="e_0_energy">    -96.32356210 </i>
   </energy>
  </scstep>
  <scstep>
   <time name="diag">    0.06    0.06</time>
   <time name="diis">    0.38    0.39</time>
   <time name="orth">    0.00    0.00</time>
   <time name="total">    0.67    0.68</time>
   <energy>
    <i name="e_fr_energy">    -96.02997905 </i>
    <i name="e_wo_entrp">    -96.04279274 </i>
    <i name="e_0_energy">    -96.03425028 </i>
   </energy>
  </scstep>
  <scstep>
   <time name="diag">    0.06    0.06</time>
   <time name="diis">    0.40    0.41</time>
   <time name="orth">    0.00    0.00</time>
   <time name="total">    0.74    0.75</time>
   <energy>
    <i name="e_fr_energy">    -96.00781086 </i>
    <i name="e_wo_entrp">    -96.02065935 </i>
    <i name="e_0_energy">    -96.01209369 </i>
   </energy>
  </scstep>
  <scstep>
   <time name="diag">    0.06    0.06</time>
   <time name="diis">    0.41    0.42</time>
   <time name="orth">    0.00    0.00</time>
   <time name="total">    0.74    0.75</time>
   <energy>
    <i name="e_fr_energy">    -96.00160823 </i>
    <i name="e_wo_entrp">    -96.01385214 </i>
    <i name="e_0_energy">    -96.00568953 </i>
   </energy>
  </scstep>
  <scstep>
   <time name="diag">    0.06    0.06</time>
   <time name="diis">    0.40    0.40</time>
   <time name="orth">    0.00    0.00</time>
   <time name="total">    0.70    0.71</time>
   <energy>
    <i name="e_fr_energy">    -95.99966127 </i>
    <i name="e_wo_entrp">    -96.01252021 </i>
    <i name="e_0_energy">    -96.00394758 </i>
   </energy>
  </scstep>
  <scstep>
   <time name="diag">    0.05    0.06</time>
   <time name="diis">    0.39    0.39</time>
   <time name="orth">    0.00    0.00</time>
   <time name="total">    0.70    0.70</time>
   <energy>
    <i name="e_fr_energy">    -96.00288760 </i>
    <i name="e_wo_entrp">    -96.01550407 </i>
    <i name="e_0_energy">    -96.00709309 </i>
   </energy>
  </scstep>
  <scstep>
   <time name="diag">    0.05    0.05</time>
   <time name="diis">    0.37    0.38</time>
   <time name="orth">    0.00    0.00</time>
   <time name="total">    0.67    0.68</time>
   <energy>
    <i name="e_fr_energy">    -96.00486316 </i>
    <i name="e_wo_entrp">    -96.01764563 </i>
    <i name="e_0_energy">    -96.00912398 </i>
   </energy>
  </scstep>
  <scstep>
   <time name="diag">    0.07    0.07</time>
   <time name="diis">    0.33    0.34</time>
   <time name="orth">    0.00    0.00</time>
   <time name="total">    0.64    0.65</time>
   <energy>
    <i name="e_fr_energy">    -96.00955817 </i>
    <i name="e_wo_entrp">    -96.02219559 </i>
    <i name="e_0_energy">    -96.01377064 </i>
   </energy>
  </scstep>
  <scstep>
   <time name="diag">    0.06    0.06</time>
   <time name="diis">    0.23    0.24</time>
   <time name="orth">    0.00    0.00</time>
   <time name="total">    0.51    0.52</time>
   <energy>
    <i name="e_fr_energy">    -96.01367900 </i>
    <i name="e_wo_entrp">    -96.02640456 </i>
    <i name="e_0_energy">    -96.01792086 </i>
   </energy>
  </scstep>
  <scstep>
   <time name="diag">    0.06    0.06</time>
   <time name="diis">    0.20    0.21</time>
   <time name="orth">    0.00    0.00</time>
   <time name="total">    0.45    0.45</time>
   <energy>
    <i name="e_fr_energy">    -96.01656788 </i>
    <i name="e_wo_entrp">    -96.02930217 </i>
    <i name="e_0_energy">    -96.02081264 </i>
   </energy>
  </scstep>
  <scstep>
   <time name="diag">    0.07    0.07</time>
   <time name="diis">    0.26    0.26</time>
   <time name="orth">    0.00    0.00</time>
   <time name="total">    0.56    0.57</time>
   <energy>
    <i name="e_fr_energy">    -96.01818472 </i>
    <i name="e_wo_entrp">    -96.03088945 </i>
    <i name="e_0_energy">    -96.02241963 </i>
   </energy>
  </scstep>
  <scstep>
   <time name="diag">    0.06    0.06</time>
   <time name="diis">    0.24    0.24</time>
   <time name="orth">    0.00    0.00</time>
   <time name="total">    0.54    0.55</time>
   <energy>
    <i name="e_fr_energy">    -96.01880751 </i>
    <i name="e_wo_entrp">    -96.03150772 </i>
    <i name="e_0_energy">    -96.02304091 </i>
   </energy>
  </scstep>
  <scstep>
   <time name="diag">    0.03    0.03</time>
   <time name="diis">    0.19    0.19</time>
   <time name="orth">    0.00    0.00</time>
   <time name="total">    0.47    0.48</time>
   <energy>
    <i name="e_fr_energy">    -96.01898091 </i>
    <i name="e_wo_entrp">    -96.03170087 </i>
    <i name="e_0_energy">    -96.02322090 </i>
   </energy>
  </scstep>
  <scstep>
   <time name="diag">    0.06    0.06</time>
   <time name="diis">    0.14    0.14</time>
   <time name="orth">    0.00    0.00</time>
   <time name="total">    0.45    0.45</time>
   <energy>
    <i name="e_fr_energy">    -96.01901746 </i>
    <i name="e_wo_entrp">    -96.03172713 </i>
    <i name="e_0_energy">    -96.02325402 </i>
   </energy>
  </scstep>
  <scstep>
   <time name="diag">    0.07    0.07</time>
   <time name="diis">    0.19    0.19</time>
   <time name="orth">    0.00    0.00</time>
   <time name="total">    0.50    0.51</time>
   <energy>
    <i name="e_fr_energy">    -96.01905399 </i>
    <i name="e_wo_entrp">    -96.03175928 </i>
    <i name="e_0_energy">    -96.02328909 </i>
   </energy>
  </scstep>
  <scstep>
   <time name="diag">    0.06    0.06</time>
   <time name="diis">    0.14    0.14</time>
   <time name="orth">    0.00    0.00</time>
   <time name="total">    0.37    0.37</time>
   <energy>
    <i name="alphaZ">      9.76196320 </i>
    <i name="ewald">   1923.67742100 </i>
    <i name="hartreedc">  -3837.14142261 </i>
    <i name="XCdc">    184.25289563 </i>
    <i name="pawpsdc">   4401.88172001 </i>
    <i name="pawaedc">  -4414.94681871 </i>
    <i name="eentropy">      0.01270861 </i>
    <i name="bandstr">   -627.39483700 </i>
    <i name="atom">   2263.87730879 </i>
    <i name="e_fr_energy">    -96.01906108 </i>
    <i name="e_wo_entrp">    -96.03176969 </i>
    <i name="e_0_energy">    -96.02329728 </i>
   </energy>
  </scstep>
  <structure>
   <crystal>
    <varray name="basis" >
     <v>       7.74550000       0.00000000       0.00000000 </v>
     <v>       0.00000000      11.75610000       0.00000000 </v>
     <v>       0.00000000       0.00000000      11.18000000 </v>
    </varray>
    <i name="volume">   1018.01583511 </i>
    <varray name="rec_basis" >
     <v>       0.12910722       0.00000000       0.00000000 </v>
     <v>       0.00000000       0.08506222       0.00000000 </v>
     <v>       0.00000000       0.00000000       0.08944544 </v>
    </varray>
   </crystal>
   <varray name="positions" >
    <v>       0.50754907       0.70929817       0.55060954 </v>
    <v>       0.50318367       0.58190929       0.54823612 </v>
    <v>       0.51645886       0.52036230       0.44323973 </v>
    <v>       0.51175356       0.40067579       0.44528865 </v>
    <v>       0.48231691       0.41217685       0.64776480 </v>
    <v>       0.53544138       0.57309403       0.33406092 </v>
    <v>       0.52502934       0.74531084       0.46099871 </v>
    <v>       0.38663755       0.74168239       0.58926856 </v>
    <v>       0.61322892       0.73787841       0.60896799 </v>
    <v>       0.56287365       0.37721138       0.26719900 </v>
    <v>       0.54256565       0.25415849       0.35219507 </v>
    <v>       0.46879489       0.36724622       0.73294132 </v>
    <v>       0.51996910       0.33853761       0.34247225 </v>
    <v>       0.49491971       0.34632338       0.55039420 </v>
    <v>       0.48525864       0.52550922       0.65350984 </v>
   </varray>
  </structure>
  <varray name="forces" >
   <v>      -0.01891148      -0.02172057       0.01362269 </v>
   <v>       0.08116813       0.01656473      -0.01709528 </v>
   <v>       0.00469813       0.00671686       0.04765849 </v>
   <v>      -0.02259980      -0.01024906      -0.04788970 </v>
   <v>       0.06575791       0.02554123       0.08796466 </v>
   <v>      -0.00646600      -0.00489671       0.02589176 </v>
   <v>      -0.00510028       0.01072101       0.03568318 </v>
   <v>       0.01571471       0.01639824       0.00082678 </v>
   <v>      -0.01706635       0.01491579      -0.00539909 </v>
   <v>      -0.01694135      -0.04822647       0.00364838 </v>
   <v>      -0.00218278      -0.00396214      -0.03042822 </v>
   <v>      -0.00259174      -0.00456344      -0.00934504 </v>
   <v>       0.04170243      -0.00247643       0.00459873 </v>
   <v>      -0.04613841       0.04858208      -0.02159645 </v>
   <v>      -0.08839357      -0.07207726      -0.06113452 </v>
  </varray>
  <varray name="stress" >
   <v>      -0.46654771      -0.06407554      -0.00131902 </v>
   <v>      -0.06407553      -0.45018108       0.27815809 </v>
   <v>      -0.00131906       0.27815809      -0.56016523 </v>
  </varray>
  <energy>
   <i name="e_fr_energy">    -96.01906108 </i>
   <i name="e_wo_entrp">    -96.03176969 </i>
   <i name="e_0_energy">    -96.02329728 </i>
   <i name="kinetic">      0.90555993 </i>
   <i name="lattice kinetic">      0.00000000 </i>
   <i name="nosepot">      0.00000000 </i>
   <i name="nosekinetic">      0.00000000 </i>
   <i name="total">    -95.11350115 </i>
  </energy>
  <time name="totalsc">   16.04   16.42</time>
 </calculation>
 <calculation>
  <scstep>
   <time name="diag">    0.05    0.05</time>
   <time name="diis">    0.22    0.23</time>
   <time name="orth">    0.00    0.00</time>
   <time name="total">    0.51    0.52</time>
   <energy>
    <i name="alphaZ">      9.76196320 </i>
    <i name="ewald">   1925.51505622 </i>
    <i name="hartreedc">  -3836.72547061 </i>
    <i name="XCdc">    184.39095573 </i>
    <i name="pawpsdc">   4401.90275994 </i>
    <i name="pawaedc">  -4414.96782527 </i>
    <i name="eentropy">      0.00747018 </i>
    <i name="bandstr">   -629.68328097 </i>
    <i name="atom">   2263.87730879 </i>
    <i name="e_fr_energy">    -95.92106278 </i>
    <i name="e_wo_entrp">    -95.92853297 </i>
    <i name="e_0_energy">    -95.92355284 </i>
   </energy>
  </scstep>
  <scstep>
   <time name="diag">    0.05    0.05</time>
   <time name="diis">    0.20    0.20</time>
   <time name="orth">    0.00    0.00</time>
   <time name="total">    0.48    0.49</time>
   <energy>
    <i name="e_fr_energy">    -95.93896867 </i>
    <i name="e_wo_entrp">    -95.94741655 </i>
    <i name="e_0_energy">    -95.94178463 </i>
   </energy>
  </scstep>
  <scstep>
   <time name="diag">    0.07    0.07</time>
   <time name="diis">    0.27    0.28</time>
   <time name="orth">    0.00    0.00</time>
   <time name="total">    0.57    0.58</time>
   <energy>
    <i name="e_fr_energy">    -95.94086568 </i>
    <i name="e_wo_entrp">    -95.95132211 </i>
    <i name="e_0_energy">    -95.94435116 </i>
   </energy>
  </scstep>
  <scstep>
   <time name="diag">    0.06    0.06</time>
   <time name="diis">    0.26    0.26</time>
   <time name="orth">    0.00    0.00</time>
   <time name="total">    0.55    0.56</time>
   <energy>
    <i name="e_fr_energy">    -95.94069265 </i>
    <i name="e_wo_entrp">    -95.95312148 </i>
    <i name="e_0_energy">    -95.94483559 </i>
   </energy>
  </scstep>
  <scstep>
   <time name="diag">    0.04    0.04</time>
   <time name="diis">    0.25    0.26</time>
   <time name="orth">    0.00    0.00</time>
   <time name="total">    0.55    0.56</time>
   <energy>
    <i name="e_fr_energy">    -95.94050003 </i>
    <i name="e_wo_entrp">    -95.95320521 </i>
    <i name="e_0_energy">    -95.94473509 </i>
   </energy>
  </scstep>
  <scstep>
   <time name="diag">    0.06    0.06</time>
   <time name="diis">    0.23    0.24</time>
   <time name="orth">    0.00    0.00</time>
   <time name="total">    0.56    0.57</time>
   <energy>
    <i name="e_fr_energy">    -95.94032251 </i>
    <i name="e_wo_entrp">    -95.95316642 </i>
    <i name="e_0_energy">    -95.94460381 </i>
   </energy>
  </scstep>
  <scstep>
   <time name="diag">    0.07    0.07</time>
   <time name="diis">    0.22    0.23</time>
   <time name="orth">    0.00    0.00</time>
   <time name="total">    0.54    0.55</time>
   <energy>
    <i name="e_fr_energy">    -95.94026786 </i>
    <i name="e_wo_entrp">    -95.95305298 </i>
    <i name="e_0_energy">    -95.94452957 </i>
   </energy>
  </scstep>
  <scstep>
   <time name="diag">    0.07    0.07</time>
   <time name="diis">    0.24    0.24</time>
   <time name="orth">    0.00    0.00</time>
   <time name="total">    0.54    0.55</time>
   <energy>
    <i name="e_fr_energy">    -95.94032870 </i>
    <i name="e_wo_entrp">    -95.95318094 </i>
    <i name="e_0_energy">    -95.94461278 </i>
   </energy>
  </scstep>
  <scstep>
   <time name="diag">    0.07    0.07</time>
   <time name="diis">    0.23    0.23</time>
   <time name="orth">    0.00    0.00</time>
   <time name="total">    0.52    0.53</time>
   <energy>
    <i name="e_fr_energy">    -95.94041014 </i>
    <i name="e_wo_entrp">    -95.95324460 </i>
    <i name="e_0_energy">    -95.94468829 </i>
   </energy>
  </scstep>
  <scstep>
   <time name="diag">    0.06    0.07</time>
   <time name="diis">    0.17    0.18</time>
   <time name="orth">    0.00    0.00</time>
   <time name="total">    0.47    0.48</time>
   <energy>
    <i name="e_fr_energy">    -95.94042892 </i>
    <i name="e_wo_entrp">    -95.95325301 </i>
    <i name="e_0_energy">    -95.94470361 </i>
   </energy>
  </scstep>
  <scstep>
   <time name="diag">    0.04    0.04</time>
   <time name="diis">    0.16    0.16</time>
   <time name="orth">    0.00    0.00</time>
   <time name="total">    0.43    0.44</time>
   <energy>
    <i name="e_fr_energy">    -95.94050680 </i>
    <i name="e_wo_entrp">    -95.95333479 </i>
    <i name="e_0_energy">    -95.94478280 </i>
   </energy>
  </scstep>
  <scstep>
   <time name="diag">    0.07    0.07</time>
   <time name="diis">    0.13    0.13</time>
   <time name="orth">    0.00    0.00</time>
   <time name="total">    0.41    0.41</time>
   <energy>
    <i name="e_fr_energy">    -95.94053321 </i>
    <i name="e_wo_entrp">    -95.95337096 </i>
    <i name="e_0_energy">    -95.94481246 </i>
   </energy>
  </scstep>
  <scstep>
   <time name="diag">    0.06    0.06</time>
   <time name="diis">    0.17    0.17</time>
   <time name="orth">    0.00    0.00</time>
   <time name="total">    0.43    0.44</time>
   <energy>
    <i name="e_fr_energy">    -95.94057065 </i>
    <i name="e_wo_entrp">    -95.95339753 </i>
    <i name="e_0_energy">    -95.94484628 </i>
   </energy>
  </scstep>
  <scstep>
   <time name="diag">    0.06    0.06</time>
   <time name="diis">    0.12    0.12</time>
   <time name="orth">    0.00    0.00</time>
   <time name="total">    0.40    0.44</time>
   <energy>
    <i name="alphaZ">      9.76196320 </i>
    <i name="ewald">   1925.51505622 </i>
    <i name="hartreedc">  -3838.07871133 </i>
    <i name="XCdc">    184.46622234 </i>
    <i name="pawpsdc">   4428.15572314 </i>
    <i name="pawaedc">  -4441.24428953 </i>
    <i name="eentropy">      0.01282761 </i>
    <i name="bandstr">   -628.40668067 </i>
    <i name="atom">   2263.87730879 </i>
    <i name="e_fr_energy">    -95.94058023 </i>
    <i name="e_wo_entrp">    -95.95340784 </i>
    <i name="e_0_energy">    -95.94485610 </i>
   </energy>
  </scstep>
  <structure>
   <crystal>
    <varray name="basis" >
     <v>       7.74550000       0.00000000       0.00000000 </v>
     <v>       0.00000000      11.75610000       0.00000000 </v>
     <v>       0.00000000       0.00000000      11.18000000 </v>
    </varray>
    <i name="volume">   1018.01583511 </i>
    <varray name="rec_basis" >
     <v>       0.12910722       0.00000000       0.00000000 </v>
     <v>       0.00000000       0.08506222       0.00000000 </v>
     <v>       0.00000000       0.00000000       0.08944544 </v>
    </varray>
   </crystal>
   <varray name="positions" >
    <v>       0.50900244       0.70920621       0.54997607 </v>
    <v>       0.50352638       0.58259679       0.54836922 </v>
    <v>       0.51629954       0.52034548       0.44390410 </v>
    <v>       0.51111850       0.40076168       0.44502141 </v>
    <v>       0.48108185       0.41331083       0.64856406 </v>
    <v>       0.53538801       0.57257131       0.33333397 </v>
    <v>       0.52555222       0.74663979       0.45931191 </v>
    <v>       0.39141971       0.74057130       0.58857465 </v>
    <v>       0.61042286       0.73828389       0.60879292 </v>
    <v>       0.56296598       0.37464289       0.26893154 </v>
    <v>       0.53948048       0.25559347       0.35340060 </v>
    <v>       0.46680306       0.36664061       0.73200761 </v>
    <v>       0.52054080       0.33821363       0.34221139 </v>
    <v>       0.49516919       0.34641434       0.55064251 </v>
    <v>       0.48488762       0.52498823       0.65395106 </v>
   </varray>
  </structure>
  <varray name="forces" >
   <v>       0.16949898      -0.07239128      -0.89402288 </v>
   <v>       0.12256642      -0.50137249      -0.04547621 </v>
   <v>       0.03010840       0.20202790      -0.32143996 </v>
   <v>       0.04321551      -0.21863158       0.19785773 </v>
   <v>       0.14360768      -0.87254627      -0.47168008 </v>
   <v>      -0.04530500      -0.06619052       0.31483038 </v>
   <v>      -0.01783994      -0.25544747       0.49850970 </v>
   <v>      -0.82937941       0.34112637       0.28524698 </v>
   <v>       0.57652681       0.17404637       0.29331006 </v>
   <v>       0.46873952       0.63313936      -1.25356349 </v>
   <v>       0.16048586      -1.06206440       0.04898884 </v>
   <v>      -0.02319710      -0.00125802       0.23461090 </v>
   <v>      -0.63417313       0.45552570       1.34724529 </v>
   <v>      -0.13109554       0.35602058      -0.04902635 </v>
   <v>      -0.06232766       0.86678238      -0.22550320 </v>
  </varray>
  <varray name="stress" >
   <v>       1.73800020      -0.26386973      -0.40168180 </v>
   <v>      -0.26386973       2.73368505       0.12556302 </v>
   <v>      -0.40168180       0.12556302      -1.17635323 </v>
  </varray>
  <energy>
   <i name="e_fr_energy">    -95.94058023 </i>
   <i name="e_wo_entrp">    -95.95340784 </i>
   <i name="e_0_energy">    -95.94485610 </i>
   <i name="kinetic">      0.83170486 </i>
   <i name="lattice kinetic">      0.00000000 </i>
   <i name="nosepot">      0.00001820 </i>
   <i name="nosekinetic">      0.00000003 </i>
   <i name="total">    -95.10885714 </i>
  </energy>
  <time name="totalsc">    8.00    8.26</time>
 </calculation>
 <calculation>
  <scstep>
   <time name="diag">    0.06    0.06</time>
   <time name="diis">    0.26    0.27</time>
   <time name="orth">    0.00    0.00</time>
   <time name="total">    0.55    0.57</time>
   <energy>
    <i name="alphaZ">      9.76196320 </i>
    <i name="ewald">   1924.31319846 </i>
    <i name="hartreedc">  -3836.86367741 </i>
    <i name="XCdc">    184.59608507 </i>
    <i name="pawpsdc">   4450.34124471 </i>
    <i name="pawaedc">  -4463.44947333 </i>
    <i name="eentropy">      0.01282321 </i>
    <i name="bandstr">   -628.37840947 </i>
    <i name="atom">   2263.87730879 </i>
    <i name="e_fr_energy">    -95.78893676 </i>
    <i name="e_wo_entrp">    -95.80175997 </i>
    <i name="e_0_energy">    -95.79321116 </i>
   </energy>
  </scstep>
  <scstep>
   <time name="diag">    0.06    0.06</time>
   <time name="diis">    0.25    0.26</time>
   <time name="orth">    0.00    0.00</time>
   <time name="total">    0.54    0.54</time>
   <energy>
    <i name="e_fr_energy">    -95.78966334 </i>
    <i name="e_wo_entrp">    -95.80199171 </i>
    <i name="e_0_energy">    -95.79377280 </i>
   </energy>
  </scstep>
  <scstep>
   <time name="diag">    0.05    0.05</time>
   <time name="diis">    0.24    0.24</time>
   <time name="orth">    0.00    0.00</time>
   <time name="total">    0.54    0.55</time>
   <energy>
    <i name="e_fr_energy">    -95.78978712 </i>
    <i name="e_wo_entrp">    -95.80177780 </i>
    <i name="e_0_energy">    -95.79378402 </i>
   </energy>
  </scstep>
  <scstep>
   <time name="diag">    0.05    0.05</time>
   <time name="diis">    0.24    0.25</time>
   <time name="orth">    0.00    0.00</time>
   <time name="total">    0.57    0.58</time>
   <energy>
    <i name="e_fr_energy">    -95.78974438 </i>
    <i name="e_wo_entrp">    -95.80109312 </i>
    <i name="e_0_energy">    -95.79352730 </i>
   </energy>
  </scstep>
  <scstep>
   <time name="diag">    0.05    0.06</time>
   <time name="diis">    0.21    0.22</time>
   <time name="orth">    0.00    0.00</time>
   <time name="total">    0.52    0.54</time>
   <energy>
    <i name="e_fr_energy">    -95.78963404 </i>
    <i name="e_wo_entrp">    -95.79991913 </i>
    <i name="e_0_energy">    -95.79306241 </i>
   </energy>
  </scstep>
  <scstep>
   <time name="diag">    0.07    0.07</time>
   <time name="diis">    0.21    0.21</time>
   <time name="orth">    0.00    0.00</time>
   <time name="total">    0.48    0.49</time>
   <energy>
    <i name="e_fr_energy">    -95.78977457 </i>
    <i name="e_wo_entrp">    -95.80205576 </i>
    <i name="e_0_energy">    -95.79386830 </i>
   </energy>
  </scstep>
  <scstep>
   <time name="diag">    0.07    0.07</time>
   <time name="diis">    0.26    0.26</time>
   <time name="orth">    0.00    0.00</time>
   <time name="total">    0.56    0.57</time>
   <energy>
    <i name="e_fr_energy">    -95.78984179 </i>
    <i name="e_wo_entrp">    -95.80245512 </i>
    <i name="e_0_energy">    -95.79404623 </i>
   </energy>
  </scstep>
  <scstep>
   <time name="diag">    0.06    0.06</time>
   <time name="diis">    0.23    0.24</time>
   <time name="orth">    0.00    0.00</time>
   <time name="total">    0.53    0.54</time>
   <energy>
    <i name="e_fr_energy">    -95.78986984 </i>
    <i name="e_wo_entrp">    -95.80261426 </i>
    <i name="e_0_energy">    -95.79411798 </i>
   </energy>
  </scstep>
  <scstep>
   <time name="diag">    0.05    0.05</time>
   <time name="diis">    0.24    0.24</time>
   <time name="orth">    0.00    0.00</time>
   <time name="total">    0.54    0.55</time>
   <energy>
    <i name="e_fr_energy">    -95.78994228 </i>
    <i name="e_wo_entrp">    -95.80284487 </i>
    <i name="e_0_energy">    -95.79424314 </i>
   </energy>
  </scstep>
  <scstep>
   <time name="diag">    0.06    0.06</time>
   <time name="diis">    0.15    0.16</time>
   <time name="orth">    0.00    0.00</time>
   <time name="total">    0.48    0.49</time>
   <energy>
    <i name="e_fr_energy">    -95.78990434 </i>
    <i name="e_wo_entrp">    -95.80277715 </i>
    <i name="e_0_energy">    -95.79419527 </i>
   </energy>
  </scstep>
  <scstep>
   <time name="diag">    0.07    0.07</time>
   <time name="diis">    0.18    0.18</time>
   <time name="orth">    0.00    0.00</time>
   <time name="total">    0.46    0.47</time>
   <energy>
    <i name="alphaZ">      9.76196320 </i>
    <i name="ewald">   1924.31319846 </i>
    <i name="hartreedc">  -3836.49060635 </i>
    <i name="XCdc">    184.56874966 </i>
    <i name="pawpsdc">   4442.97777155 </i>
    <i name="pawaedc">  -4456.07954335 </i>
    <i name="eentropy">      0.01284999 </i>
    <i name="bandstr">   -628.73158829 </i>
    <i name="atom">   2263.87730879 </i>
    <i name="e_fr_energy">    -95.78989633 </i>
    <i name="e_wo_entrp">    -95.80274632 </i>
    <i name="e_0_energy">    -95.79417966 </i>
   </energy>
  </scstep>
  <structure>
   <crystal>
    <varray name="basis" >
     <v>       7.74550000       0.00000000       0.00000000 </v>
     <v>       0.00000000      11.75610000       0.00000000 </v>
     <v>       0.00000000       0.00000000      11.18000000 </v>
    </varray>
    <i name="volume">   1018.01583511 </i>
    <varray name="rec_basis" >
     <v>       0.12910722       0.00000000       0.00000000 </v>
     <v>       0.00000000       0.08506222       0.00000000 </v>
     <v>       0.00000000       0.00000000       0.08944544 </v>
    </varray>
   </crystal>
   <varray name="positions" >
    <v>       0.51047365       0.70910945       0.54927866 </v>
    <v>       0.50388208       0.58325016       0.54849933 </v>
    <v>       0.51614362       0.52034261       0.44454564 </v>
    <v>       0.51048821       0.40083276       0.44476866 </v>
    <v>       0.47986198       0.41438531       0.64932970 </v>
    <v>       0.53533194       0.57204589       0.33262161 </v>
    <v>       0.52605314       0.74775920       0.45805563 </v>
    <v>       0.39516892       0.73974033       0.58812719 </v>
    <v>       0.60833531       0.73883235       0.60887125 </v>
    <v>       0.56364248       0.37259423       0.26958249 </v>
    <v>       0.53659557       0.25615690       0.35464866 </v>
    <v>       0.46478265       0.36603412       0.73127666 </v>
    <v>       0.52105635       0.33791650       0.34203385 </v>
    <v>       0.49540727       0.34652631       0.55088807 </v>
    <v>       0.48451133       0.52451819       0.65437864 </v>
   </varray>
  </structure>
  <varray name="forces" >
   <v>       0.30276475      -0.06550327      -1.40926918 </v>
   <v>       0.14310875      -0.98044512      -0.04973626 </v>
   <v>       0.04358697       0.37071868      -0.64718132 </v>
   <v>       0.12175972      -0.39865765       0.43895878 </v>
   <v>       0.21989297      -1.79242527      -0.94312807 </v>
   <v>      -0.06486187      -0.10230240       0.56843256 </v>
   <v>      -0.00833914      -0.44102285       0.77768633 </v>
   <v>      -1.45726106       0.57915178       0.48490006 </v>
   <v>       1.00202474       0.28260040       0.49464447 </v>
   <v>       0.77511206       1.02200938      -2.00915231 </v>
   <v>       0.22170240      -1.66022243       0.09943894 </v>
   <v>      -0.03985641       0.02697606       0.40415522 </v>
   <v>      -1.04200335       0.72903042       2.20531268 </v>
   <v>      -0.21367828       0.59370486      -0.08398257 </v>
   <v>      -0.02199142       1.85271357      -0.33895108 </v>
  </varray>
  <varray name="stress" >
   <v>       3.33495406      -0.29388507      -0.56983407 </v>
   <v>      -0.29388505       5.17757628       0.29664648 </v>
   <v>      -0.56983407       0.29664648      -2.13597248 </v>
  </varray>
  <energy>
   <i name="e_fr_energy">    -95.78989633 </i>
   <i name="e_wo_entrp">    -95.80274632 </i>
   <i name="e_0_energy">    -95.79417966 </i>
   <i name="kinetic">      0.69328617 </i>
   <i name="lattice kinetic">      0.00000000 </i>
   <i name="nosepot">     -0.00160429 </i>
   <i name="nosekinetic">      0.00024114 </i>
   <i name="total">    -95.09797330 </i>
  </energy>
  <time name="totalsc">    6.82    7.02</time>
 </calculation>
 <calculation>
  <scstep>
   <time name="diag">    0.07    0.07</time>
   <time name="diis">    0.24    0.24</time>
   <time name="orth">    0.00    0.00</time>
   <time name="total">    0.55    0.57</time>
   <energy>
    <i name="alphaZ">      9.76196320 </i>
    <i name="ewald">   1917.65084313 </i>
    <i name="hartreedc">  -3830.65578509 </i>
    <i name="XCdc">    184.47721535 </i>
    <i name="pawpsdc">   4436.73271093 </i>
    <i name="pawaedc">  -4449.82939670 </i>
    <i name="eentropy">      0.01111771 </i>
    <i name="bandstr">   -627.74771716 </i>
    <i name="atom">   2263.87730879 </i>
    <i name="e_fr_energy">    -95.72173985 </i>
    <i name="e_wo_entrp">    -95.73285756 </i>
    <i name="e_0_energy">    -95.72544575 </i>
   </energy>
  </scstep>
  <scstep>
   <time name="diag">    0.04    0.04</time>
   <time name="diis">    0.23    0.23</time>
   <time name="orth">    0.00    0.00</time>
   <time name="total">    0.47    0.48</time>
   <energy>
    <i name="e_fr_energy">    -95.72076911 </i>
    <i name="e_wo_entrp">    -95.72867595 </i>
    <i name="e_0_energy">    -95.72340472 </i>
   </energy>
  </scstep>
  <scstep>
   <time name="diag">    0.03    0.03</time>
   <time name="diis">    0.18    0.18</time>
   <time name="orth">    0.00    0.00</time>
   <time name="total">    0.42    0.42</time>
   <energy>
    <i name="e_fr_energy">    -95.72143209 </i>
    <i name="e_wo_entrp">    -95.73092590 </i>
    <i name="e_0_energy">    -95.72459669 </i>
   </energy>
  </scstep>
  <scstep>
   <time name="diag">    0.07    0.07</time>
   <time name="diis">    0.25    0.25</time>
   <time name="orth">    0.00    0.00</time>
   <time name="total">    0.57    0.58</time>
   <energy>
    <i name="e_fr_energy">    -95.72229171 </i>
    <i name="e_wo_entrp">    -95.73481362 </i>
    <i name="e_0_energy">    -95.72646568 </i>
   </energy>
  </scstep>
  <scstep>
   <time name="diag">    0.06    0.06</time>
   <time name="diis">    0.28    0.28</time>
   <time name="orth">    0.00    0.00</time>
   <time name="total">    0.56    0.57</time>
   <energy>
    <i name="e_fr_energy">    -95.72280534 </i>
    <i name="e_wo_entrp">    -95.73570558 </i>
    <i name="e_0_energy">    -95.72710542 </i>
   </energy>
  </scstep>
  <scstep>
   <time name="diag">    0.06    0.06</time>
   <time name="diis">    0.33    0.34</time>
   <time name="orth">    0.00    0.00</time>
   <time name="total">    0.63    0.64</time>
   <energy>
    <i name="e_fr_energy">    -95.72984421 </i>
    <i name="e_wo_entrp">    -95.74237221 </i>
    <i name="e_0_energy">    -95.73402021 </i>
   </energy>
  </scstep>
  <scstep>
   <time name="diag">    0.06    0.06</time>
   <time name="diis">    0.26    0.26</time>
   <time name="orth">    0.00    0.00</time>
   <time name="total">    0.55    0.56</time>
   <energy>
    <i name="e_fr_energy">    -95.72335342 </i>
    <i name="e_wo_entrp">    -95.73558828 </i>
    <i name="e_0_energy">    -95.72743171 </i>
   </energy>
  </scstep>
  <scstep>
   <time name="diag">    0.06    0.06</time>
   <time name="diis">    0.25    0.25</time>
   <time name="orth">    0.00    0.00</time>
   <time name="total">    0.55    0.56</time>
   <energy>
    <i name="e_fr_energy">    -95.72247063 </i>
    <i name="e_wo_entrp">    -95.73534173 </i>
    <i name="e_0_energy">    -95.72676100 </i>
   </energy>
  </scstep>
  <scstep>
   <time name="diag">    0.06    0.06</time>
   <time name="diis">    0.22    0.23</time>
   <time name="orth">    0.00    0.00</time>
   <time name="total">    0.55    0.56</time>
   <energy>
    <i name="e_fr_energy">    -95.72271557 </i>
    <i name="e_wo_entrp">    -95.73559347 </i>
    <i name="e_0_energy">    -95.72700821 </i>
   </energy>
  </scstep>
  <scstep>
   <time name="diag">    0.07    0.07</time>
   <time name="diis">    0.21    0.22</time>
   <time name="orth">    0.01    0.01</time>
   <time name="total">    0.55    0.56</time>
   <energy>
    <i name="e_fr_energy">    -95.72255487 </i>
    <i name="e_wo_entrp">    -95.73514060 </i>
    <i name="e_0_energy">    -95.72675011 </i>
   </energy>
  </scstep>
  <scstep>
   <time name="diag">    0.07    0.07</time>
   <time name="diis">    0.21    0.22</time>
   <time name="orth">    0.00    0.00</time>
   <time name="total">    0.52    0.53</time>
   <energy>
    <i name="e_fr_energy">    -95.72244530 </i>
    <i name="e_wo_entrp">    -95.73472041 </i>
    <i name="e_0_energy">    -95.72653701 </i>
   </energy>
  </scstep>
  <scstep>
   <time name="diag">    0.06    0.06</time>
   <time name="diis">    0.17    0.17</time>
   <time name="orth">    0.00    0.00</time>
   <time name="total">    0.44    0.45</time>
   <energy>
    <i name="e_fr_energy">    -95.72240644 </i>
    <i name="e_wo_entrp">    -95.73458203 </i>
    <i name="e_0_energy">    -95.72646497 </i>
   </energy>
  </scstep>
  <scstep>
   <time name="diag">    0.05    0.05</time>
   <time name="diis">    0.14    0.14</time>
   <time name="orth">    0.00    0.00</time>
   <time name="total">    0.36    0.36</time>
   <energy>
    <i name="alphaZ">      9.76196320 </i>
    <i name="ewald">   1917.65084313 </i>
    <i name="hartreedc">  -3830.55279861 </i>
    <i name="XCdc">    184.47305711 </i>
    <i name="pawpsdc">   4432.05631211 </i>
    <i name="pawaedc">  -4445.14811376 </i>
    <i name="eentropy">      0.01221848 </i>
    <i name="bandstr">   -627.85320459 </i>
    <i name="atom">   2263.87730879 </i>
    <i name="e_fr_energy">    -95.72241414 </i>
    <i name="e_wo_entrp">    -95.73463262 </i>
    <i name="e_0_energy">    -95.72648697 </i>
   </energy>
  </scstep>
  <structure>
   <crystal>
    <varray name="basis" >
     <v>       7.74550000       0.00000000       0.00000000 </v>
     <v>       0.00000000      11.75610000       0.00000000 </v>
     <v>       0.00000000       0.00000000      11.18000000 </v>
    </varray>
    <i name="volume">   1018.01583511 </i>
    <varray name="rec_basis" >
     <v>       0.12910722       0.00000000       0.00000000 </v>
     <v>       0.00000000       0.08506222       0.00000000 </v>
     <v>       0.00000000       0.00000000       0.08944544 </v>
    </varray>
   </crystal>
   <varray name="positions" >
    <v>       0.51197913       0.70900793       0.54847868 </v>
    <v>       0.50425346       0.58383755       0.54862614 </v>
    <v>       0.51599212       0.52036498       0.44514185 </v>
    <v>       0.50986959       0.40087661       0.44454707 </v>
    <v>       0.47866290       0.41533904       0.65002895 </v>
    <v>       0.53527170       0.57151498       0.33193386 </v>
    <v>       0.52654475       0.74851824       0.45746889 </v>
    <v>       0.39710816       0.73938351       0.58809783 </v>
    <v>       0.60749350       0.73961384       0.60937706 </v>
    <v>       0.56528682       0.37138129       0.26849916 </v>
    <v>       0.53398202       0.25535743       0.35598493 </v>
    <v>       0.46270907       0.36544859       0.73089355 </v>
    <v>       0.52148022       0.33766150       0.34199209 </v>
    <v>       0.49562694       0.34667321       0.55112895 </v>
    <v>       0.48413259       0.52415590       0.65478615 </v>
   </varray>
  </structure>
  <varray name="forces" >
   <v>       0.22172557       0.17037864      -1.27138801 </v>
   <v>       0.16205818      -1.39611740      -0.04206376 </v>
   <v>       0.05176302       0.50342450      -0.97502343 </v>
   <v>       0.21231476      -0.52693611       0.65453967 </v>
   <v>       0.27623924      -2.70539243      -1.31267645 </v>
   <v>      -0.07538956      -0.17731121       0.81753363 </v>
   <v>       0.02484976      -0.51392068       0.81325700 </v>
   <v>      -1.53989398       0.60669202       0.45308198 </v>
   <v>       1.09178135       0.26432880       0.45786799 </v>
   <v>       0.61716765       0.81365434      -1.58795409 </v>
   <v>       0.17770700      -1.36815949       0.03074183 </v>
   <v>      -0.04420812       0.09977161       0.45926159 </v>
   <v>      -0.88981855       0.69158165       1.98115975 </v>
   <v>      -0.29768566       0.73856973      -0.10116729 </v>
   <v>       0.02096444       2.79969977      -0.39663840 </v>
  </varray>
  <varray name="stress" >
   <v>       3.55842809      -0.31470669      -0.17042382 </v>
   <v>      -0.31470669       5.79635706       1.08675246 </v>
   <v>      -0.17042380       1.08675245      -4.62811547 </v>
  </varray>
  <energy>
   <i name="e_fr_energy">    -95.72241414 </i>
   <i name="e_wo_entrp">    -95.73463262 </i>
   <i name="e_0_energy">    -95.72648697 </i>
   <i name="kinetic">      0.62801751 </i>
   <i name="lattice kinetic">      0.00000000 </i>
   <i name="nosepot">     -0.00800346 </i>
   <i name="nosekinetic">      0.00202845 </i>
   <i name="total">    -95.10037164 </i>
  </energy>
  <time name="totalsc">    7.80    8.02</time>
 </calculation>
 <calculation>
  <scstep>
   <time name="diag">    0.06    0.06</time>
   <time name="diis">    0.27    0.28</time>
   <time name="orth">    0.00    0.00</time>
   <time name="total">    0.55    0.57</time>
   <energy>
    <i name="alphaZ">      9.76196320 </i>
    <i name="ewald">   1906.31624698 </i>
    <i name="hartreedc">  -3820.82253925 </i>
    <i name="XCdc">    184.20145785 </i>
    <i name="pawpsdc">   4398.77606261 </i>
    <i name="pawaedc">  -4411.83757472 </i>
    <i name="eentropy">      0.01160275 </i>
    <i name="bandstr">   -625.99641987 </i>
    <i name="atom">   2263.87730879 </i>
    <i name="e_fr_energy">    -95.71189167 </i>
    <i name="e_wo_entrp">    -95.72349442 </i>
    <i name="e_0_energy">    -95.71575925 </i>
   </energy>
  </scstep>
  <scstep>
   <time name="diag">    0.07    0.07</time>
   <time name="diis">    0.25    0.26</time>
   <time name="orth">    0.00    0.00</time>
   <time name="total">    0.54    0.55</time>
   <energy>
    <i name="e_fr_energy">    -95.71047472 </i>
    <i name="e_wo_entrp">    -95.71852631 </i>
    <i name="e_0_energy">    -95.71315858 </i>
   </energy>
  </scstep>
  <scstep>
   <time name="diag">    0.04    0.04</time>
   <time name="diis">    0.24    0.25</time>
   <time name="orth">    0.00    0.00</time>
   <time name="total">    0.53    0.54</time>
   <energy>
    <i name="e_fr_energy">    -95.71397638 </i>
    <i name="e_wo_entrp">    -95.72615284 </i>
    <i name="e_0_energy">    -95.71803520 </i>
   </energy>
  </scstep>
  <scstep>
   <time name="diag">    0.06    0.06</time>
   <time name="diis">    0.22    0.22</time>
   <time name="orth">    0.00    0.00</time>
   <time name="total">    0.54    0.55</time>
   <energy>
    <i name="e_fr_energy">    -95.71161994 </i>
    <i name="e_wo_entrp">    -95.72218479 </i>
    <i name="e_0_energy">    -95.71514156 </i>
   </energy>
  </scstep>
  <scstep>
   <time name="diag">    0.07    0.08</time>
   <time name="diis">    0.22    0.22</time>
   <time name="orth">    0.00    0.00</time>
   <time name="total">    0.54    0.56</time>
   <energy>
    <i name="e_fr_energy">    -95.70833574 </i>
    <i name="e_wo_entrp">    -95.71462158 </i>
    <i name="e_0_energy">    -95.71043102 </i>
   </energy>
  </scstep>
  <scstep>
   <time name="diag">    0.07    0.07</time>
   <time name="diis">    0.24    0.25</time>
   <time name="orth">    0.00    0.00</time>
   <time name="total">    0.55    0.56</time>
   <energy>
    <i name="e_fr_energy">    -95.70750601 </i>
    <i name="e_wo_entrp">    -95.71347244 </i>
    <i name="e_0_energy">    -95.70949482 </i>
   </energy>
  </scstep>
  <scstep>
   <time name="diag">    0.06    0.06</time>
   <time name="diis">    0.26    0.27</time>
   <time name="orth">    0.00    0.00</time>
   <time name="total">    0.56    0.57</time>
   <energy>
    <i name="e_fr_energy">    -95.70753197 </i>
    <i name="e_wo_entrp">    -95.71350301 </i>
    <i name="e_0_energy">    -95.70952232 </i>
   </energy>
  </scstep>
  <scstep>
   <time name="diag">    0.06    0.06</time>
   <time name="diis">    0.26    0.26</time>
   <time name="orth">    0.00    0.00</time>
   <time name="total">    0.54    0.55</time>
   <energy>
    <i name="e_fr_energy">    -95.70714557 </i>
    <i name="e_wo_entrp">    -95.71301921 </i>
    <i name="e_0_energy">    -95.70910345 </i>
   </energy>
  </scstep>
  <scstep>
   <time name="diag">    0.06    0.06</time>
   <time name="diis">    0.28    0.28</time>
   <time name="orth">    0.00    0.00</time>
   <time name="total">    0.57    0.59</time>
   <energy>
    <i name="e_fr_energy">    -95.70690896 </i>
    <i name="e_wo_entrp">    -95.71273136 </i>
    <i name="e_0_energy">    -95.70884976 </i>
   </energy>
  </scstep>
  <scstep>
   <time name="diag">    0.06    0.06</time>
   <time name="diis">    0.25    0.26</time>
   <time name="orth">    0.00    0.00</time>
   <time name="total">    0.54    0.55</time>
   <energy>
    <i name="e_fr_energy">    -95.70689512 </i>
    <i name="e_wo_entrp">    -95.71270293 </i>
    <i name="e_0_energy">    -95.70883105 </i>
   </energy>
  </scstep>
  <scstep>
   <time name="diag">    0.07    0.07</time>
   <time name="diis">    0.26    0.26</time>
   <time name="orth">    0.00    0.00</time>
   <time name="total">    0.56    0.57</time>
   <energy>
    <i name="e_fr_energy">    -95.70700957 </i>
    <i name="e_wo_entrp">    -95.71283228 </i>
    <i name="e_0_energy">    -95.70895047 </i>
   </energy>
  </scstep>
  <scstep>
   <time name="diag">    0.06    0.06</time>
   <time name="diis">    0.19    0.19</time>
   <time name="orth">    0.00    0.00</time>
   <time name="total">    0.47    0.48</time>
   <energy>
    <i name="e_fr_energy">    -95.70711639 </i>
    <i name="e_wo_entrp">    -95.71293692 </i>
    <i name="e_0_energy">    -95.70905657 </i>
   </energy>
  </scstep>
  <scstep>
   <time name="diag">    0.06    0.06</time>
   <time name="diis">    0.13    0.13</time>
   <time name="orth">    0.00    0.00</time>
   <time name="total">    0.38    0.39</time>
   <energy>
    <i name="e_fr_energy">    -95.70717867 </i>
    <i name="e_wo_entrp">    -95.71299972 </i>
    <i name="e_0_energy">    -95.70911902 </i>
   </energy>
  </scstep>
  <scstep>
   <time name="diag">    0.07    0.07</time>
   <time name="diis">    0.18    0.19</time>
   <time name="orth">    0.01    0.01</time>
   <time name="total">    0.49    0.50</time>
   <energy>
    <i name="e_fr_energy">    -95.70721036 </i>
    <i name="e_wo_entrp">    -95.71302918 </i>
    <i name="e_0_energy">    -95.70914996 </i>
   </energy>
  </scstep>
  <scstep>
   <time name="diag">    0.04    0.04</time>
   <time name="diis">    0.18    0.18</time>
   <time name="orth">    0.00    0.00</time>
   <time name="total">    0.47    0.47</time>
   <energy>
    <i name="e_fr_energy">    -95.70723498 </i>
    <i name="e_wo_entrp">    -95.71305189 </i>
    <i name="e_0_energy">    -95.70917395 </i>
   </energy>
  </scstep>
  <scstep>
   <time name="diag">    0.06    0.06</time>
   <time name="diis">    0.14    0.14</time>
   <time name="orth">    0.00    0.00</time>
   <time name="total">    0.42    0.43</time>
   <energy>
    <i name="alphaZ">      9.76196320 </i>
    <i name="ewald">   1906.31624698 </i>
    <i name="hartreedc">  -3820.80426580 </i>
    <i name="XCdc">    184.21327134 </i>
    <i name="pawpsdc">   4400.13100983 </i>
    <i name="pawaedc">  -4413.19185194 </i>
    <i name="eentropy">      0.00581514 </i>
    <i name="bandstr">   -626.01674079 </i>
    <i name="atom">   2263.87730879 </i>
    <i name="e_fr_energy">    -95.70724324 </i>
    <i name="e_wo_entrp">    -95.71305838 </i>
    <i name="e_0_energy">    -95.70918162 </i>
   </energy>
  </scstep>
  <structure>
   <crystal>
    <varray name="basis" >
     <v>       7.74550000       0.00000000       0.00000000 </v>
     <v>       0.00000000      11.75610000       0.00000000 </v>
     <v>       0.00000000       0.00000000      11.18000000 </v>
    </varray>
    <i name="volume">   1018.01583511 </i>
    <varray name="rec_basis" >
     <v>       0.12910722       0.00000000       0.00000000 </v>
     <v>       0.00000000       0.08506222       0.00000000 </v>
     <v>       0.00000000       0.00000000       0.08944544 </v>
    </varray>
   </crystal>
   <varray name="positions" >
    <v>       0.51351550       0.70891755       0.54758302 </v>
    <v>       0.50464356       0.58433239       0.54875073 </v>
    <v>       0.51584511       0.52042196       0.44567110 </v>
    <v>       0.50926970       0.40088458       0.44437160 </v>
    <v>       0.47748613       0.41611245       0.65063745 </v>
    <v>       0.53520608       0.57097359       0.33127985 </v>
    <v>       0.52706989       0.74885839       0.45758289 </v>
    <v>       0.39713423       0.73952404       0.58846050 </v>
    <v>       0.60801077       0.74061697       0.61028185 </v>
    <v>       0.56771057       0.37083150       0.26603621 </v>
    <v>       0.53157655       0.25342790       0.35735498 </v>
    <v>       0.46056924       0.36494206       0.73090595 </v>
    <v>       0.52182685       0.33744580       0.34207269 </v>
    <v>       0.49582111       0.34686429       0.55136498 </v>
    <v>       0.48375362       0.52395625       0.65517142 </v>
   </varray>
  </structure>
  <varray name="forces" >
   <v>      -0.10743469       0.62760136      -0.37370011 </v>
   <v>       0.15558835      -1.74895065       0.02309335 </v>
   <v>       0.06275463       0.49692947      -1.32525399 </v>
   <v>       0.30009469      -0.49330704       0.97970880 </v>
   <v>       0.29951321      -3.48443297      -1.66870629 </v>
   <v>      -0.08801386      -0.17293445       1.01490020 </v>
   <v>       0.07787552      -0.45875138       0.59396496 </v>
   <v>      -1.05150860       0.41713671       0.17823672 </v>
   <v>       0.84305875       0.10536874       0.16820140 </v>
   <v>       0.10610397       0.22702376      -0.32344878 </v>
   <v>       0.10123709      -0.39203824      -0.14208590 </v>
   <v>      -0.03659503       0.20346115       0.40960305 </v>
   <v>      -0.35471744       0.30862586       0.94527796 </v>
   <v>      -0.37929963       0.66183242      -0.13349307 </v>
   <v>       0.06470635       3.71990884      -0.33846723 </v>
  </varray>
  <varray name="stress" >
   <v>       2.00159853      -0.36986354       0.64868037 </v>
   <v>      -0.36986354       5.34366091       2.21317686 </v>
   <v>       0.64868037       2.21317687      -8.00313147 </v>
  </varray>
  <energy>
   <i name="e_fr_energy">    -95.70724324 </i>
   <i name="e_wo_entrp">    -95.71305838 </i>
   <i name="e_0_energy">    -95.70918162 </i>
   <i name="kinetic">      0.61836715 </i>
   <i name="lattice kinetic">      0.00000000 </i>
   <i name="nosepot">     -0.02083781 </i>
   <i name="nosekinetic">      0.00584257 </i>
   <i name="total">    -95.10387133 </i>
  </energy>
  <time name="totalsc">    9.35    9.66</time>
 </calculation>
 <calculation>
  <scstep>
   <time name="diag">    0.06    0.07</time>
   <time name="diis">    0.27    0.27</time>
   <time name="orth">    0.00    0.00</time>
   <time name="total">    0.56    0.57</time>
   <energy>
    <i name="alphaZ">      9.76196320 </i>
    <i name="ewald">   1893.45850085 </i>
    <i name="hartreedc">  -3809.58507266 </i>
    <i name="XCdc">    183.89123084 </i>
    <i name="pawpsdc">   4358.89308153 </i>
    <i name="pawaedc">  -4371.91364916 </i>
    <i name="eentropy">      0.00579791 </i>
    <i name="bandstr">   -624.04496813 </i>
    <i name="atom">   2263.87730879 </i>
    <i name="e_fr_energy">    -95.65580684 </i>
    <i name="e_wo_entrp">    -95.66160474 </i>
    <i name="e_0_energy">    -95.65773947 </i>
   </energy>
  </scstep>
  <scstep>
   <time name="diag">    0.06    0.06</time>
   <time name="diis">    0.25    0.26</time>
   <time name="orth">    0.00    0.00</time>
   <time name="total">    0.54    0.55</time>
   <energy>
    <i name="e_fr_energy">    -95.64089958 </i>
    <i name="e_wo_entrp">    -95.64669767 </i>
    <i name="e_0_energy">    -95.64283228 </i>
   </energy>
  </scstep>
  <scstep>
   <time name="diag">    0.07    0.07</time>
   <time name="diis">    0.27    0.28</time>
   <time name="orth">    0.00    0.00</time>
   <time name="total">    0.58    0.58</time>
   <energy>
    <i name="e_fr_energy">    -95.63933006 </i>
    <i name="e_wo_entrp">    -95.64513192 </i>
    <i name="e_0_energy">    -95.64126401 </i>
   </energy>
  </scstep>
  <scstep>
   <time name="diag">    0.06    0.06</time>
   <time name="diis">    0.21    0.21</time>
   <time name="orth">    0.00    0.00</time>
   <time name="total">    0.49    0.49</time>
   <energy>
    <i name="e_fr_energy">    -95.63833718 </i>
    <i name="e_wo_entrp">    -95.64413859 </i>
    <i name="e_0_energy">    -95.64027098 </i>
   </energy>
  </scstep>
  <scstep>
   <time name="diag">    0.04    0.04</time>
   <time name="diis">    0.23    0.23</time>
   <time name="orth">    0.00    0.00</time>
   <time name="total">    0.47    0.47</time>
   <energy>
    <i name="e_fr_energy">    -95.63822337 </i>
    <i name="e_wo_entrp">    -95.64403287 </i>
    <i name="e_0_energy">    -95.64015987 </i>
   </energy>
  </scstep>
  <scstep>
   <time name="diag">    0.06    0.06</time>
   <time name="diis">    0.28    0.28</time>
   <time name="orth">    0.00    0.00</time>
   <time name="total">    0.57    0.58</time>
   <energy>
    <i name="e_fr_energy">    -95.63846414 </i>
    <i name="e_wo_entrp">    -95.64427292 </i>
    <i name="e_0_energy">    -95.64040040 </i>
   </energy>
  </scstep>
  <scstep>
   <time name="diag">    0.06    0.06</time>
   <time name="diis">    0.23    0.23</time>
   <time name="orth">    0.00    0.00</time>
   <time name="total">    0.54    0.62</time>
   <energy>
    <i name="e_fr_energy">    -95.63860531 </i>
    <i name="e_wo_entrp">    -95.64441460 </i>
    <i name="e_0_energy">    -95.64054174 </i>
   </energy>
  </scstep>
  <scstep>
   <time name="diag">    0.04    0.04</time>
   <time name="diis">    0.21    0.22</time>
   <time name="orth">    0.00    0.00</time>
   <time name="total">    0.50    0.51</time>
   <energy>
    <i name="e_fr_energy">    -95.63891009 </i>
    <i name="e_wo_entrp">    -95.64472125 </i>
    <i name="e_0_energy">    -95.64084715 </i>
   </energy>
  </scstep>
  <scstep>
   <time name="diag">    0.06    0.06</time>
   <time name="diis">    0.16    0.16</time>
   <time name="orth">    0.00    0.00</time>
   <time name="total">    0.49    0.49</time>
   <energy>
    <i name="e_fr_energy">    -95.63900171 </i>
    <i name="e_wo_entrp">    -95.64481279 </i>
[...]
        <r>  0.0110  0.0006  0.0000  0.0000  0.0000  0.0000  0.0000  0.0000  0.0000 </r>
        <r>  0.0239  0.0001  0.0002  0.0004  0.0000  0.0000  0.0000  0.0000  0.0000 </r>
        <r>  0.0002  0.0002  0.0018  0.0011  0.0000  0.0000  0.0000  0.0000  0.0000 </r>
        <r>  0.0000  0.0002  0.0024  0.0006  0.0000  0.0000  0.0000  0.0000  0.0000 </r>
        <r>  0.0002  0.0000  0.0005  0.0003  0.0000  0.0000  0.0000  0.0000  0.0000 </r>
        <r>  0.0009  0.0072  0.1365  0.0494  0.0000  0.0000  0.0000  0.0000  0.0000 </r>
        <r>  0.0002  0.0003  0.0023  0.0050  0.0000  0.0000  0.0000  0.0000  0.0000 </r>
        <r>  0.0005  0.0115  0.0610  0.0654  0.0000  0.0000  0.0000  0.0000  0.0000 </r>
       </set>
       <set comment="band 21">
        <r>  0.0000  0.0010  0.0095  0.0059  0.0000  0.0000  0.0000  0.0000  0.0000 </r>
        <r>  0.0027  0.0086  0.0194  0.0406  0.0000  0.0000  0.0000  0.0000  0.0000 </r>
        <r>  0.0101  0.0003  0.0271  0.0058  0.0000  0.0000  0.0000  0.0000  0.0000 </r>
        <r>  0.0031  0.0017  0.0033  0.0148  0.0000  0.0000  0.0000  0.0000  0.0000 </r>
        <r>  0.0115  0.0018  0.0159  0.0022  0.0000  0.0000  0.0000  0.0000  0.0000 </r>
        <r>  0.0002  0.0001  0.0469  0.0039  0.0000  0.0000  0.0000  0.0000  0.0000 </r>
        <r>  0.0007  0.0000  0.0000  0.0001  0.0000  0.0000  0.0000  0.0000  0.0000 </r>
        <r>  0.0112  0.0003  0.0000  0.0001  0.0000  0.0000  0.0000  0.0000  0.0000 </r>
        <r>  0.0165  0.0001  0.0002  0.0002  0.0000  0.0000  0.0000  0.0000  0.0000 </r>
        <r>  0.0000  0.0000  0.0001  0.0001  0.0000  0.0000  0.0000  0.0000  0.0000 </r>
        <r>  0.0003  0.0000  0.0002  0.0000  0.0000  0.0000  0.0000  0.0000  0.0000 </r>
        <r>  0.0244  0.0003  0.0001  0.0006  0.0000  0.0000  0.0000  0.0000  0.0000 </r>
        <r>  0.0003  0.0021  0.0083  0.0032  0.0000  0.0000  0.0000  0.0000  0.0000 </r>
        <r>  0.0420  0.0016  0.0000  0.1964  0.0000  0.0000  0.0000  0.0000  0.0000 </r>
        <r>  0.0172  0.0178  0.0583  0.0038  0.0000  0.0000  0.0000  0.0000  0.0000 </r>
       </set>
       <set comment="band 22">
        <r>  0.0002  0.0001  0.0063  0.0031  0.0000  0.0000  0.0000  0.0000  0.0000 </r>
        <r>  0.0016  0.0038  0.0522  0.0050  0.0000  0.0000  0.0000  0.0000  0.0000 </r>
        <r>  0.0092  0.0005  0.0053  0.0132  0.0000  0.0000  0.0000  0.0000  0.0000 </r>
        <r>  0.0020  0.0021  0.0055  0.0094  0.0000  0.0000  0.0000  0.0000  0.0000 </r>
        <r>  0.0090  0.0034  0.0027  0.0195  0.0000  0.0000  0.0000  0.0000  0.0000 </r>
        <r>  0.0004  0.0038  0.0005  0.0291  0.0000  0.0000  0.0000  0.0000  0.0000 </r>
        <r>  0.0032  0.0001  0.0000  0.0001  0.0000  0.0000  0.0000  0.0000  0.0000 </r>
        <r>  0.0025  0.0002  0.0000  0.0000  0.0000  0.0000  0.0000  0.0000  0.0000 </r>
        <r>  0.0118  0.0000  0.0001  0.0001  0.0000  0.0000  0.0000  0.0000  0.0000 </r>
        <r>  0.0001  0.0000  0.0004  0.0002  0.0000  0.0000  0.0000  0.0000  0.0000 </r>
        <r>  0.0006  0.0000  0.0004  0.0002  0.0000  0.0000  0.0000  0.0000  0.0000 </r>
        <r>  0.0352  0.0001  0.0011  0.0000  0.0000  0.0000  0.0000  0.0000  0.0000 </r>
        <r>  0.0019  0.0000  0.0235  0.0096  0.0000  0.0000  0.0000  0.0000  0.0000 </r>
        <r>  0.0273  0.0130  0.2058  0.0031  0.0000  0.0000  0.0000  0.0000  0.0000 </r>
        <r>  0.0256  0.0581  0.0001  0.0364  0.0000  0.0000  0.0000  0.0000  0.0000 </r>
       </set>
       <set comment="band 23">
        <r>  0.0012  0.0007  0.0033  0.0014  0.0000  0.0000  0.0000  0.0000  0.0000 </r>
        <r>  0.0009  0.0080  0.0041  0.0072  0.0000  0.0000  0.0000  0.0000  0.0000 </r>
        <r>  0.0006  0.0046  0.0344  0.0578  0.0000  0.0000  0.0000  0.0000  0.0000 </r>
        <r>  0.0009  0.0000  0.0259  0.0004  0.0000  0.0000  0.0000  0.0000  0.0000 </r>
        <r>  0.0003  0.0020  0.0049  0.0310  0.0000  0.0000  0.0000  0.0000  0.0000 </r>
        <r>  0.0000  0.0019  0.0175  0.0266  0.0000  0.0000  0.0000  0.0000  0.0000 </r>
        <r>  0.0010  0.0001  0.0000  0.0000  0.0000  0.0000  0.0000  0.0000  0.0000 </r>
        <r>  0.0009  0.0000  0.0000  0.0000  0.0000  0.0000  0.0000  0.0000  0.0000 </r>
        <r>  0.0010  0.0000  0.0000  0.0001  0.0000  0.0000  0.0000  0.0000  0.0000 </r>
        <r>  0.0001  0.0001  0.0017  0.0010  0.0000  0.0000  0.0000  0.0000  0.0000 </r>
        <r>  0.0002  0.0001  0.0025  0.0002  0.0000  0.0000  0.0000  0.0000  0.0000 </r>
        <r>  0.0001  0.0000  0.0002  0.0002  0.0000  0.0000  0.0000  0.0000  0.0000 </r>
        <r>  0.0001  0.0053  0.0808  0.0375  0.0000  0.0000  0.0000  0.0000  0.0000 </r>
        <r>  0.0043  0.0131  0.0013  0.0612  0.0000  0.0000  0.0000  0.0000  0.0000 </r>
        <r>  0.0093  0.1195  0.0302  0.0121  0.0000  0.0000  0.0000  0.0000  0.0000 </r>
       </set>
       <set comment="band 24">
        <r>  0.0021  0.0011  0.0020  0.0045  0.0000  0.0000  0.0000  0.0000  0.0000 </r>
        <r>  0.0019  0.0120  0.0046  0.0002  0.0000  0.0000  0.0000  0.0000  0.0000 </r>
        <r>  0.0013  0.0198  0.0330  0.0071  0.0000  0.0000  0.0000  0.0000  0.0000 </r>
        <r>  0.0001  0.0005  0.0035  0.0131  0.0000  0.0000  0.0000  0.0000  0.0000 </r>
        <r>  0.0008  0.0198  0.0088  0.0003  0.0000  0.0000  0.0000  0.0000  0.0000 </r>
        <r>  0.0000  0.0135  0.0119  0.0048  0.0000  0.0000  0.0000  0.0000  0.0000 </r>
        <r>  0.0007  0.0000  0.0000  0.0000  0.0000  0.0000  0.0000  0.0000  0.0000 </r>
        <r>  0.0000  0.0001  0.0000  0.0000  0.0000  0.0000  0.0000  0.0000  0.0000 </r>
        <r>  0.0001  0.0000  0.0000  0.0000  0.0000  0.0000  0.0000  0.0000  0.0000 </r>
        <r>  0.0012  0.0000  0.0007  0.0007  0.0000  0.0000  0.0000  0.0000  0.0000 </r>
        <r>  0.0004  0.0000  0.0009  0.0005  0.0000  0.0000  0.0000  0.0000  0.0000 </r>
        <r>  0.0010  0.0000  0.0001  0.0000  0.0000  0.0000  0.0000  0.0000  0.0000 </r>
        <r>  0.0039  0.0003  0.0500  0.0159  0.0000  0.0000  0.0000  0.0000  0.0000 </r>
        <r>  0.0027  0.0508  0.0351  0.0192  0.0000  0.0000  0.0000  0.0000  0.0000 </r>
        <r>  0.0228  0.1933  0.0340  0.0433  0.0000  0.0000  0.0000  0.0000  0.0000 </r>
       </set>
       <set comment="band 25">
        <r>  0.0012  0.0001  0.0000  0.0002  0.0000  0.0000  0.0000  0.0000  0.0000 </r>
        <r>  0.0002  0.0032  0.1028  0.0702  0.0000  0.0000  0.0000  0.0000  0.0000 </r>
        <r>  0.0003  0.0006  0.0108  0.0141  0.0000  0.0000  0.0000  0.0000  0.0000 </r>
        <r>  0.0002  0.0010  0.0465  0.0315  0.0000  0.0000  0.0000  0.0000  0.0000 </r>
        <r>  0.0001  0.0003  0.0064  0.0106  0.0000  0.0000  0.0000  0.0000  0.0000 </r>
        <r>  0.0001  0.0000  0.0020  0.0020  0.0000  0.0000  0.0000  0.0000  0.0000 </r>
        <r>  0.0012  0.0000  0.0000  0.0000  0.0000  0.0000  0.0000  0.0000  0.0000 </r>
        <r>  0.0070  0.0000  0.0000  0.0001  0.0000  0.0000  0.0000  0.0000  0.0000 </r>
        <r>  0.0161  0.0001  0.0000  0.0002  0.0000  0.0000  0.0000  0.0000  0.0000 </r>
        <r>  0.0000  0.0000  0.0006  0.0002  0.0000  0.0000  0.0000  0.0000  0.0000 </r>
        <r>  0.0011  0.0000  0.0010  0.0004  0.0000  0.0000  0.0000  0.0000  0.0000 </r>
        <r>  0.0000  0.0000  0.0002  0.0003  0.0000  0.0000  0.0000  0.0000  0.0000 </r>
        <r>  0.0005  0.0014  0.0180  0.0068  0.0000  0.0000  0.0000  0.0000  0.0000 </r>
        <r>  0.0002  0.0041  0.0771  0.0339  0.0000  0.0000  0.0000  0.0000  0.0000 </r>
        <r>  0.0004  0.0000  0.0239  0.0255  0.0000  0.0000  0.0000  0.0000  0.0000 </r>
       </set>
       <set comment="band 26">
        <r>  0.0014  0.0001  0.0002  0.0002  0.0000  0.0000  0.0000  0.0000  0.0000 </r>
        <r>  0.0004  0.0000  0.0001  0.0003  0.0000  0.0000  0.0000  0.0000  0.0000 </r>
        <r>  0.0002  0.0031  0.0240  0.0455  0.0000  0.0000  0.0000  0.0000  0.0000 </r>
        <r>  0.0011  0.0003  0.0531  0.0277  0.0000  0.0000  0.0000  0.0000  0.0000 </r>
        <r>  0.0002  0.0125  0.0573  0.0717  0.0000  0.0000  0.0000  0.0000  0.0000 </r>
        <r>  0.0017  0.0000  0.0145  0.0036  0.0000  0.0000  0.0000  0.0000  0.0000 </r>
        <r>  0.0001  0.0001  0.0000  0.0001  0.0000  0.0000  0.0000  0.0000  0.0000 </r>
        <r>  0.0002  0.0001  0.0000  0.0001  0.0000  0.0000  0.0000  0.0000  0.0000 </r>
        <r>  0.0000  0.0000  0.0000  0.0000  0.0000  0.0000  0.0000  0.0000  0.0000 </r>
        <r>  0.0002  0.0002  0.0002  0.0014  0.0000  0.0000  0.0000  0.0000  0.0000 </r>
        <r>  0.0000  0.0000  0.0011  0.0000  0.0000  0.0000  0.0000  0.0000  0.0000 </r>
        <r>  0.0000  0.0002  0.0026  0.0019  0.0000  0.0000  0.0000  0.0000  0.0000 </r>
        <r>  0.0010  0.0000  0.0192  0.0082  0.0000  0.0000  0.0000  0.0000  0.0000 </r>
        <r>  0.0002  0.0004  0.0133  0.0022  0.0000  0.0000  0.0000  0.0000  0.0000 </r>
        <r>  0.0000  0.0020  0.0593  0.0394  0.0000  0.0000  0.0000  0.0000  0.0000 </r>
       </set>
       <set comment="band 27">
        <r>  0.0060  0.0000  0.0001  0.0011  0.0000  0.0000  0.0000  0.0000  0.0000 </r>
        <r>  0.0000  0.0001  0.0023  0.0023  0.0000  0.0000  0.0000  0.0000  0.0000 </r>
        <r>  0.0003  0.0003  0.0213  0.0030  0.0000  0.0000  0.0000  0.0000  0.0000 </r>
        <r>  0.0002  0.0013  0.0059  0.0008  0.0000  0.0000  0.0000  0.0000  0.0000 </r>
        <r>  0.0000  0.0002  0.0200  0.0105  0.0000  0.0000  0.0000  0.0000  0.0000 </r>
        <r>  0.0034  0.0000  0.0011  0.0027  0.0000  0.0000  0.0000  0.0000  0.0000 </r>
        <r>  0.0000  0.0002  0.0005  0.0001  0.0000  0.0000  0.0000  0.0000  0.0000 </r>
        <r>  0.0003  0.0003  0.0001  0.0001  0.0000  0.0000  0.0000  0.0000  0.0000 </r>
        <r>  0.0004  0.0000  0.0004  0.0003  0.0000  0.0000  0.0000  0.0000  0.0000 </r>
        <r>  0.0007  0.0009  0.0018  0.0010  0.0000  0.0000  0.0000  0.0000  0.0000 </r>
        <r>  0.0007  0.0001  0.0002  0.0021  0.0000  0.0000  0.0000  0.0000  0.0000 </r>
        <r>  0.0000  0.0002  0.0002  0.0009  0.0000  0.0000  0.0000  0.0000  0.0000 </r>
        <r>  0.0165  0.0044  0.0001  0.0002  0.0000  0.0000  0.0000  0.0000  0.0000 </r>
        <r>  0.0026  0.0000  0.0036  0.0105  0.0000  0.0000  0.0000  0.0000  0.0000 </r>
        <r>  0.0007  0.0034  0.0042  0.0067  0.0000  0.0000  0.0000  0.0000  0.0000 </r>
       </set>
       <set comment="band 28">
        <r>  0.0059  0.0058  0.0015  0.0038  0.0000  0.0000  0.0000  0.0000  0.0000 </r>
        <r>  0.0001  0.0000  0.0004  0.0006  0.0000  0.0000  0.0000  0.0000  0.0000 </r>
        <r>  0.0018  0.0009  0.0024  0.0056  0.0000  0.0000  0.0000  0.0000  0.0000 </r>
        <r>  0.0006  0.0027  0.0001  0.0001  0.0000  0.0000  0.0000  0.0000  0.0000 </r>
        <r>  0.0035  0.0001  0.0008  0.0016  0.0000  0.0000  0.0000  0.0000  0.0000 </r>
        <r>  0.0039  0.0001  0.0037  0.0024  0.0000  0.0000  0.0000  0.0000  0.0000 </r>
        <r>  0.0000  0.0004  0.0004  0.0001  0.0000  0.0000  0.0000  0.0000  0.0000 </r>
        <r>  0.0000  0.0007  0.0002  0.0008  0.0000  0.0000  0.0000  0.0000  0.0000 </r>
        <r>  0.0002  0.0000  0.0010  0.0005  0.0000  0.0000  0.0000  0.0000  0.0000 </r>
        <r>  0.0005  0.0015  0.0012  0.0017  0.0000  0.0000  0.0000  0.0000  0.0000 </r>
        <r>  0.0010  0.0001  0.0003  0.0013  0.0000  0.0000  0.0000  0.0000  0.0000 </r>
        <r>  0.0005  0.0002  0.0005  0.0003  0.0000  0.0000  0.0000  0.0000  0.0000 </r>
        <r>  0.0176  0.0020  0.0017  0.0000  0.0000  0.0000  0.0000  0.0000  0.0000 </r>
        <r>  0.0000  0.0004  0.0014  0.0011  0.0000  0.0000  0.0000  0.0000  0.0000 </r>
        <r>  0.0021  0.0003  0.0002  0.0013  0.0000  0.0000  0.0000  0.0000  0.0000 </r>
       </set>
       <set comment="band 29">
        <r>  0.0056  0.0001  0.0058  0.0015  0.0000  0.0000  0.0000  0.0000  0.0000 </r>
        <r>  0.0006  0.0002  0.0000  0.0002  0.0000  0.0000  0.0000  0.0000  0.0000 </r>
        <r>  0.0012  0.0018  0.0022  0.0034  0.0000  0.0000  0.0000  0.0000  0.0000 </r>
        <r>  0.0008  0.0003  0.0000  0.0003  0.0000  0.0000  0.0000  0.0000  0.0000 </r>
        <r>  0.0034  0.0015  0.0077  0.0006  0.0000  0.0000  0.0000  0.0000  0.0000 </r>
        <r>  0.0012  0.0001  0.0000  0.0002  0.0000  0.0000  0.0000  0.0000  0.0000 </r>
        <r>  0.0000  0.0006  0.0012  0.0004  0.0000  0.0000  0.0000  0.0000  0.0000 </r>
        <r>  0.0013  0.0003  0.0000  0.0001  0.0000  0.0000  0.0000  0.0000  0.0000 </r>
        <r>  0.0019  0.0002  0.0003  0.0001  0.0000  0.0000  0.0000  0.0000  0.0000 </r>
        <r>  0.0001  0.0004  0.0002  0.0002  0.0000  0.0000  0.0000  0.0000  0.0000 </r>
        <r>  0.0001  0.0000  0.0000  0.0006  0.0000  0.0000  0.0000  0.0000  0.0000 </r>
        <r>  0.0001  0.0004  0.0009  0.0010  0.0000  0.0000  0.0000  0.0000  0.0000 </r>
        <r>  0.0000  0.0008  0.0067  0.0004  0.0000  0.0000  0.0000  0.0000  0.0000 </r>
        <r>  0.0026  0.0003  0.0003  0.0008  0.0000  0.0000  0.0000  0.0000  0.0000 </r>
        <r>  0.0001  0.0013  0.0006  0.0001  0.0000  0.0000  0.0000  0.0000  0.0000 </r>
       </set>
       <set comment="band 30">
        <r>  0.0006  0.0121  0.0049  0.0000  0.0000  0.0000  0.0000  0.0000  0.0000 </r>
        <r>  0.0001  0.0003  0.0051  0.0094  0.0000  0.0000  0.0000  0.0000  0.0000 </r>
        <r>  0.0015  0.0017  0.0178  0.0007  0.0000  0.0000  0.0000  0.0000  0.0000 </r>
        <r>  0.0009  0.0001  0.0109  0.0081  0.0000  0.0000  0.0000  0.0000  0.0000 </r>
        <r>  0.0003  0.0003  0.0040  0.0019  0.0000  0.0000  0.0000  0.0000  0.0000 </r>
        <r>  0.0009  0.0013  0.0014  0.0000  0.0000  0.0000  0.0000  0.0000  0.0000 </r>
        <r>  0.0000  0.0002  0.0011  0.0011  0.0000  0.0000  0.0000  0.0000  0.0000 </r>
        <r>  0.0015  0.0001  0.0002  0.0002  0.0000  0.0000  0.0000  0.0000  0.0000 </r>
        <r>  0.0024  0.0000  0.0003  0.0002  0.0000  0.0000  0.0000  0.0000  0.0000 </r>
        <r>  0.0006  0.0014  0.0007  0.0004  0.0000  0.0000  0.0000  0.0000  0.0000 </r>
        <r>  0.0054  0.0021  0.0001  0.0059  0.0000  0.0000  0.0000  0.0000  0.0000 </r>
        <r>  0.0001  0.0000  0.0001  0.0000  0.0000  0.0000  0.0000  0.0000  0.0000 </r>
        <r>  0.0018  0.0011  0.0030  0.0169  0.0000  0.0000  0.0000  0.0000  0.0000 </r>
        <r>  0.0005  0.0009  0.0023  0.0001  0.0000  0.0000  0.0000  0.0000  0.0000 </r>
        <r>  0.0007  0.0003  0.0022  0.0040  0.0000  0.0000  0.0000  0.0000  0.0000 </r>
       </set>
       <set comment="band 31">
        <r>  0.0003  0.0001  0.0009  0.0012  0.0000  0.0000  0.0000  0.0000  0.0000 </r>
        <r>  0.0000  0.0008  0.0001  0.0088  0.0000  0.0000  0.0000  0.0000  0.0000 </r>
        <r>  0.0000  0.0000  0.0143  0.0054  0.0000  0.0000  0.0000  0.0000  0.0000 </r>
        <r>  0.0010  0.0015  0.0152  0.0084  0.0000  0.0000  0.0000  0.0000  0.0000 </r>
        <r>  0.0000  0.0001  0.0042  0.0000  0.0000  0.0000  0.0000  0.0000  0.0000 </r>
        <r>  0.0006  0.0003  0.0026  0.0009  0.0000  0.0000  0.0000  0.0000  0.0000 </r>
        <r>  0.0005  0.0001  0.0002  0.0000  0.0000  0.0000  0.0000  0.0000  0.0000 </r>
        <r>  0.0016  0.0006  0.0001  0.0000  0.0000  0.0000  0.0000  0.0000  0.0000 </r>
        <r>  0.0001  0.0000  0.0001  0.0001  0.0000  0.0000  0.0000  0.0000  0.0000 </r>
        <r>  0.0001  0.0000  0.0001  0.0001  0.0000  0.0000  0.0000  0.0000  0.0000 </r>
        <r>  0.0002  0.0007  0.0007  0.0018  0.0000  0.0000  0.0000  0.0000  0.0000 </r>
        <r>  0.0002  0.0005  0.0001  0.0001  0.0000  0.0000  0.0000  0.0000  0.0000 </r>
        <r>  0.0014  0.0005  0.0032  0.0137  0.0000  0.0000  0.0000  0.0000  0.0000 </r>
        <r>  0.0001  0.0013  0.0154  0.0103  0.0000  0.0000  0.0000  0.0000  0.0000 </r>
        <r>  0.0060  0.0001  0.0066  0.0031  0.0000  0.0000  0.0000  0.0000  0.0000 </r>
       </set>
       <set comment="band 32">
        <r>  0.0063  0.0015  0.0054  0.0136  0.0000  0.0000  0.0000  0.0000  0.0000 </r>
        <r>  0.0002  0.0000  0.0036  0.0016  0.0000  0.0000  0.0000  0.0000  0.0000 </r>
        <r>  0.0017  0.0136  0.0090  0.0086  0.0000  0.0000  0.0000  0.0000  0.0000 </r>
        <r>  0.0002  0.0004  0.0002  0.0000  0.0000  0.0000  0.0000  0.0000  0.0000 </r>
        <r>  0.0014  0.0031  0.0010  0.0062  0.0000  0.0000  0.0000  0.0000  0.0000 </r>
        <r>  0.0041  0.0113  0.0118  0.0029  0.0000  0.0000  0.0000  0.0000  0.0000 </r>
        <r>  0.0002  0.0005  0.0000  0.0003  0.0000  0.0000  0.0000  0.0000  0.0000 </r>
        <r>  0.0013  0.0037  0.0004  0.0003  0.0000  0.0000  0.0000  0.0000  0.0000 </r>
        <r>  0.0002  0.0004  0.0002  0.0002  0.0000  0.0000  0.0000  0.0000  0.0000 </r>
        <r>  0.0020  0.0023  0.0011  0.0007  0.0000  0.0000  0.0000  0.0000  0.0000 </r>
        <r>  0.0008  0.0013  0.0000  0.0009  0.0000  0.0000  0.0000  0.0000  0.0000 </r>
        <r>  0.0015  0.0000  0.0008  0.0001  0.0000  0.0000  0.0000  0.0000  0.0000 </r>
        <r>  0.0001  0.0031  0.0148  0.0029  0.0000  0.0000  0.0000  0.0000  0.0000 </r>
        <r>  0.0025  0.0011  0.0011  0.0082  0.0000  0.0000  0.0000  0.0000  0.0000 </r>
        <r>  0.0002  0.0063  0.0002  0.0065  0.0000  0.0000  0.0000  0.0000  0.0000 </r>
       </set>
      </set>
     </set>
    </set>
   </array>
  </projected>
 </calculation>
 <structure name="finalpos" >
  <crystal>
   <varray name="basis" >
    <v>       7.74550000       0.00000000       0.00000000 </v>
    <v>       0.00000000      11.75610000       0.00000000 </v>
    <v>       0.00000000       0.00000000      11.18000000 </v>
   </varray>
   <i name="volume">   1018.01583511 </i>
   <varray name="rec_basis" >
    <v>       0.12910722       0.00000000       0.00000000 </v>
    <v>       0.00000000       0.08506222       0.00000000 </v>
    <v>       0.00000000       0.00000000       0.08944544 </v>
   </varray>
  </crystal>
  <varray name="positions" >
   <v>       0.71356981       0.64840032       0.39945575 </v>
   <v>       0.57936710       0.58063506       0.46074321 </v>
   <v>       0.55859495       0.46509083       0.45986978 </v>
   <v>       0.43309847       0.40931853       0.52442589 </v>
   <v>       0.35857407       0.57445608       0.60181255 </v>
   <v>       0.66076470       0.40313674       0.38340120 </v>
   <v>       0.77689287       0.60382525       0.32790568 </v>
   <v>       0.65360284       0.72540730       0.36707938 </v>
   <v>       0.82128612       0.67181651       0.45919179 </v>
   <v>       0.49014025       0.24860264       0.47410013 </v>
   <v>       0.30444228       0.26906372       0.55886669 </v>
   <v>       0.28573134       0.61936728       0.66898521 </v>
   <v>       0.41568485       0.29643190       0.52594618 </v>
   <v>       0.31979713       0.46967628       0.58895179 </v>
   <v>       0.47336430       0.63510011       0.53762303 </v>
  </varray>
  <varray name="velocities" >
   <v>       0.00076665      -0.00057018       0.00053471 </v>
   <v>       0.00000092      -0.00005775      -0.00055756 </v>
   <v>      -0.00101561      -0.00060015       0.00011578 </v>
   <v>       0.00005260      -0.00022907       0.00027655 </v>
   <v>      -0.00018780       0.00051407      -0.00036354 </v>
   <v>       0.00012743       0.00004966       0.00013573 </v>
   <v>       0.00210197      -0.00107130      -0.00007328 </v>
   <v>       0.00149663      -0.00221600       0.00052007 </v>
   <v>      -0.00041141      -0.00089259      -0.00258273 </v>
   <v>      -0.00355607      -0.00091934       0.00416608 </v>
   <v>       0.00385025       0.00234452       0.00129063 </v>
   <v>      -0.00248100      -0.00064342      -0.00054929 </v>
   <v>       0.00016147       0.00034064       0.00070420 </v>
   <v>      -0.00048437       0.00038970      -0.00007009 </v>
   <v>       0.00040731       0.00025401      -0.00102134 </v>
  </varray>
 </structure>
</modeling>
