Cluster                                 
           1
     7.745500    0.000000    0.000000
     0.000000   11.756100    0.000000
     0.000000    0.000000   11.180000
   C    F    H    N 
     5     1     6     3
Direct configuration=     1
   0.50754907  0.70929817  0.55060954
   0.50318367  0.58190929  0.54823612
   0.51645886  0.52036230  0.44323973
   0.51175356  0.40067579  0.44528865
   0.48231691  0.41217685  0.64776480
   0.53544138  0.57309403  0.33406092
   0.52502934  0.74531084  0.46099871
   0.38663755  0.74168239  0.58926856
   0.61322892  0.73787841  0.60896799
   0.56287365  0.37721138  0.26719900
   0.54256565  0.25415849  0.35219507
   0.46879489  0.36724622  0.73294132
   0.51996910  0.33853761  0.34247225
   0.49491971  0.34632338  0.55039420
   0.48525864  0.52550922  0.65350984
Direct configuration=     2
   0.50900244  0.70920621  0.54997607
   0.50352638  0.58259679  0.54836922
   0.51629954  0.52034548  0.44390410
   0.51111850  0.40076168  0.44502141
   0.48108185  0.41331083  0.64856406
   0.53538801  0.57257131  0.33333397
   0.52555222  0.74663979  0.45931191
   0.39141971  0.74057130  0.58857465
   0.61042286  0.73828389  0.60879292
   0.56296598  0.37464289  0.26893154
   0.53948048  0.25559347  0.35340060
   0.46680306  0.36664061  0.73200761
   0.52054080  0.33821363  0.34221139
   0.49516919  0.34641434  0.55064251
   0.48488762  0.52498823  0.65395106
Direct configuration=     3
   0.51047365  0.70910945  0.54927866
   0.50388208  0.58325016  0.54849933
   0.51614362  0.52034261  0.44454564
   0.51048821  0.40083276  0.44476866
   0.47986198  0.41438531  0.64932970
   0.53533194  0.57204589  0.33262161
   0.52605314  0.74775920  0.45805563
   0.39516892  0.73974033  0.58812719
   0.60833531  0.73883235  0.60887125
   0.56364248  0.37259423  0.26958249
   0.53659557  0.25615690  0.35464866
   0.46478265  0.36603412  0.73127666
   0.52105635  0.33791650  0.34203385
   0.49540727  0.34652631  0.55088807
   0.48451133  0.52451819  0.65437864
Direct configuration=     4
   0.51197913  0.70900793  0.54847868
   0.50425346  0.58383755  0.54862614
   0.51599212  0.52036498  0.44514185
   0.50986959  0.40087661  0.44454707
   0.47866290  0.41533904  0.65002895
   0.53527170  0.57151498  0.33193386
   0.52654475  0.74851824  0.45746889
   0.39710816  0.73938351  0.58809783
   0.60749350  0.73961384  0.60937706
   0.56528682  0.37138129  0.26849916
   0.53398202  0.25535743  0.35598493
   0.46270907  0.36544859  0.73089355
   0.52148022  0.33766150  0.34199209
   0.49562694  0.34667321  0.55112895
   0.48413259  0.52415590  0.65478615
Direct configuration=     5
   0.51351550  0.70891755  0.54758302
   0.50464356  0.58433239  0.54875073
   0.51584511  0.52042196  0.44567110
   0.50926970  0.40088458  0.44437160
   0.47748613  0.41611245  0.65063745
   0.53520608  0.57097359  0.33127985
   0.52706989  0.74885839  0.45758289
   0.39713423  0.73952404  0.58846050
   0.60801077  0.74061697  0.61028185
   0.56771057  0.37083150  0.26603621
   0.53157655  0.25342790  0.35735498
   0.46056924  0.36494206  0.73090595
   0.52182685  0.33744580  0.34207269
   0.49582111  0.34686429  0.55136498
   0.48375362  0.52395625  0.65517142
Direct configuration=     6
   0.51505453  0.70886932  0.54665231
   0.50505342  0.58471150  0.54887805
   0.51570339  0.52051344  0.44610939
   0.50869576  0.40085865  0.44426522
   0.47633008  0.41665352  0.65113092
   0.53513415  0.57041973  0.33066623
   0.52769725  0.74882328  0.45821277
   0.39584487  0.74000961  0.58898087
   0.60958764  0.74171584  0.61134051
   0.57028887  0.37046383  0.26327073
   0.52927626  0.25115775  0.35861409
   0.45836449  0.36459862  0.73127348
   0.52214496  0.33724623  0.34221248
   0.49598320  0.34709595  0.55159480
   0.48337711  0.52397372  0.65553914
Direct configuration=     7
   0.51655694  0.70889359  0.54577723
   0.50548713  0.58496293  0.54900850
   0.51556574  0.52063608  0.44644036
   0.50815690  0.40080085  0.44423820
   0.47519347  0.41692937  0.65150679
   0.53505368  0.56985167  0.33009812
   0.52851255  0.74854319  0.45898655
   0.39416256  0.74061868  0.58933195
   0.61171938  0.74272796  0.61219526
   0.57241045  0.36985105  0.26125893
   0.52703822  0.24938004  0.35959737
   0.45611706  0.36452330  0.73188886
   0.52247781  0.33703288  0.34235299
   0.49610610  0.34737027  0.55181944
   0.48300354  0.52423509  0.65588859
Direct configuration=     8
   0.51799184  0.70900755  0.54504945
   0.50594778  0.58508368  0.54914305
   0.51543146  0.52078228  0.44665063
   0.50766076  0.40071760  0.44429649
   0.47407369  0.41693291  0.65176658
   0.53496393  0.56926656  0.32957839
   0.52960576  0.74820523  0.45942893
   0.39294172  0.74115798  0.58922595
   0.61391711  0.74348410  0.61251383
   0.57368884  0.36876277  0.26065550
   0.52487186  0.24865055  0.36018954
   0.45385166  0.36480491  0.73262731
   0.52284883  0.33678169  0.34246195
   0.49618193  0.34768716  0.55204189
   0.48263114  0.52474628  0.65621934
Direct configuration=     9
   0.51933709  0.70921777  0.54453806
   0.50643853  0.58507787  0.54928208
   0.51530022  0.52093961  0.44672830
   0.50721517  0.40061881  0.44444089
   0.47296914  0.41668488  0.65191426
   0.53486410  0.56866070  0.32910795
   0.53105319  0.74797491  0.45912557
   0.39277758  0.74150801  0.58847570
   0.61584379  0.74387187  0.61207487
   0.57400610  0.36716702  0.26164980
   0.52281353  0.24914713  0.36034505
   0.45158836  0.36549123  0.73338344
   0.52326192  0.33648106  0.34253699
   0.49620288  0.34804407  0.55226669
   0.48225664  0.52549252  0.65653057
Direct configuration=    10
   0.52058630  0.70952460  0.54426552
   0.50696153  0.58495481  0.54942577
   0.51517079  0.52109253  0.44666287
   0.50682725  0.40051661  0.44466771
   0.47187903  0.41622984  0.65195234
   0.53475419  0.56803207  0.32868845
   0.53289337  0.74790098  0.45792051
   0.39396191  0.74163116  0.58700750
   0.61736511  0.74385347  0.61080500
   0.57352804  0.36521838  0.26395318
   0.52089581  0.25064662  0.36009556
   0.44933727  0.36657518  0.73409376
   0.52370130  0.33613458  0.34260656
   0.49616026  0.34843599  0.55249981
   0.48187492  0.52644175  0.65682071
Direct configuration=    11
   0.52174359  0.70992501  0.54420276
   0.50751997  0.58472983  0.54957333
   0.51504221  0.52122226  0.44644545
   0.50650422  0.40042501  0.44496751
   0.47080635  0.41563085  0.65188365
   0.53463280  0.56737925  0.32832267
   0.53511224  0.74787728  0.45600674
   0.39646533  0.74157411  0.58486477
   0.61857116  0.74347387  0.60879448
   0.57274642  0.36326910  0.26674780
   0.51911968  0.25251306  0.35955877
   0.44710057  0.36799226  0.73474150
   0.52413028  0.33576192  0.34273159
   0.49604525  0.34885496  0.55274707
   0.48148044  0.52754948  0.65708606
Direct configuration=    12
   0.52282553  0.71040736  0.54427544
   0.50811488  0.58442292  0.54972197
   0.51491422  0.52130975  0.44607204
   0.50625317  0.40035846  0.44532706
   0.46975660  0.41496019  0.65171165
   0.53450021  0.56670173  0.32801213
   0.53764963  0.74769796  0.45383143
   0.39989831  0.74147651  0.58221690
   0.61978417  0.74286350  0.60630056
   0.57242884  0.36182339  0.26879214
   0.51742927  0.25379524  0.35892623
   0.44487290  0.36963068  0.73534923
   0.52449588  0.33539554  0.34299819
   0.49584902  0.34929049  0.55301431
   0.48106764  0.52876455  0.65732153
Direct configuration=    13
   0.52386410  0.71094391  0.54438267
   0.50874763  0.58405730  0.54986587
   0.51478672  0.52133628  0.44554492
   0.50608297  0.40033011  0.44572862
   0.46873435  0.41429253  0.65144432
   0.53435499  0.56600033  0.32775788
   0.54042256  0.74715501  0.45189665
   0.40349119  0.74157664  0.57935505
   0.62151925  0.74222074  0.60371003
   0.57323031  0.36129748  0.26905279
   0.51572950  0.25362612  0.35838042
   0.44264551  0.37135412  0.73595499
   0.52475643  0.33506858  0.34347709
   0.49556412  0.34973043  0.55330730
   0.48063228  0.53003509  0.65752095
Direct configuration=    14
   0.52491175  0.71149269  0.54442473
   0.50941999  0.58366096  0.54999163
   0.51466029  0.52128778  0.44487900
   0.50600158  0.40034864  0.44614628
   0.46774140  0.41369550  0.65110689
   0.53419721  0.56527445  0.32755905
   0.54334783  0.74610499  0.45059260
   0.40621956  0.74218412  0.57663938
   0.62432384  0.74175401  0.60142709
   0.57511489  0.36169192  0.26761148
   0.51397454  0.25183407  0.35796626
   0.44041237  0.37303209  0.73657577
   0.52491507  0.33479416  0.34416692
   0.49518363  0.35016918  0.55363086
   0.48016889  0.53130773  0.65767420
Direct configuration=    15
   0.52602928  0.71201140  0.54433253
   0.51012841  0.58326175  0.55009070
   0.51453504  0.52115223  0.44409014
   0.50601420  0.40042209  0.44656640
   0.46677982  0.41322794  0.65071667
   0.53402787  0.56452635  0.32741406
   0.54636016  0.74450605  0.45011165
   0.40721734  0.74357000  0.57437656
   0.62848614  0.74159458  0.59971132
   0.57736369  0.36261822  0.26558109
   0.51223222  0.24909304  0.35760059
   0.43817911  0.37455546  0.73718667
   0.52501753  0.33455210  0.34499670
   0.49470113  0.35058889  0.55398685
   0.47967346  0.53254446  0.65777638
Direct configuration=    16
   0.52725439  0.71247509  0.54409309
   0.51086738  0.58288787  0.55015323
   0.51441153  0.52092313  0.44320225
   0.50612434  0.40055235  0.44697637
   0.46584838  0.41293952  0.65029944
   0.53384822  0.56376005  0.32731815
   0.54942524  0.74241592  0.45041566
   0.40634511  0.74581533  0.57267636
   0.63379930  0.74173510  0.59856685
   0.57914670  0.36361519  0.26422667
   0.51065838  0.24644964  0.35717444
   0.43597000  0.37585072  0.73770728
   0.52511227  0.33430069  0.34588388
   0.49411235  0.35097070  0.55437385
   0.47914360  0.53371297  0.65782347
Direct configuration=    17
   0.52858840  0.71288196  0.54374612
   0.51162773  0.58256771  0.55016886
   0.51429085  0.52059838  0.44224832
   0.50633220  0.40073508  0.44736547
   0.46494119  0.41287018  0.64989008
   0.53365987  0.56297985  0.32726394
   0.55255138  0.73998165  0.45122775
   0.40436163  0.74874490  0.57142827
   0.63960472  0.74205171  0.59778515
   0.57989061  0.36434864  0.26440196
   0.50941005  0.24479142  0.35663792
   0.43382451  0.37687886  0.73801801
   0.52522999  0.33400103  0.34676852
   0.49341515  0.35129753  0.55478587
   0.47857844  0.53478603  0.65781093
Direct configuration=    18
   0.53000456  0.71324263  0.54336277
   0.51239839  0.58232651  0.55012740
   0.51417431  0.52018122  0.44126780
   0.50663548  0.40095745  0.44772442
   0.46404906  0.41305151  0.64952442
   0.53346498  0.56219116  0.32724143
   0.55579289  0.73741591  0.45206739
   0.40249063  0.75201930  0.57041605
   0.64506871  0.74238062  0.59708963
   0.57935500  0.36465419  0.26643543
   0.50858582  0.24460170  0.35601255
   0.43178643  0.37762547  0.73799929
   0.52538325  0.33363145  0.34762252
   0.49260943  0.35155589  0.55521376
   0.47797902  0.53574079  0.65773369
Direct configuration=    19
   0.53146978  0.71356610  0.54301430
   0.51316686  0.58218560  0.55001881
   0.51406568  0.51968103  0.44030358
   0.50702910  0.40119909  0.44804657
   0.46316069  0.41350665  0.64923578
   0.53326582  0.56139826  0.32723846
   0.55923071  0.73494854  0.45237747
   0.40187501  0.75527866  0.56943547
   0.64946167  0.74258372  0.59625548
   0.57763737  0.36454895  0.27012235
   0.50819429  0.24589317  0.35537313
   0.42989113  0.37809192  0.73757269
   0.52556816  0.33319232  0.34845161
   0.49169702  0.35173832  0.55564723
   0.47734885  0.53655899  0.65758595
Direct configuration=    20
   0.53296546  0.71385795  0.54274378
   0.51391755  0.58216095  0.54983316
   0.51396809  0.51911402  0.43940302
   0.50750556  0.40143171  0.44832946
   0.46226424  0.41424834  0.64904985
   0.53306558  0.56060665  0.32724128
   0.56291566  0.73275672  0.45175266
   0.40329261  0.75822756  0.56834582
   0.65230757  0.74257816  0.59516581
   0.57521883  0.36427390  0.27465834
   0.50812826  0.24815511  0.35483217
   0.42815365  0.37828797  0.73673044
   0.52576244  0.33270579  0.34929930
   0.49068091  0.35184452  0.55607670
   0.47669318  0.53722525  0.65736077
Direct configuration=    21
   0.53448623  0.71412055  0.54254879
   0.51463323  0.58226017  0.54955945
   0.51388572  0.51850314  0.43861741
   0.50805557  0.40162026  0.44857432
   0.46135029  0.41527738  0.64898187
   0.53286708  0.55982231  0.32723483
   0.56679516  0.73091763  0.45016574
   0.40708783  0.76067079  0.56707943
   0.65345048  0.74234456  0.59382533
   0.57296894  0.36433177  0.27863751
   0.50814824  0.25032731  0.35452162
   0.42656253  0.37823154  0.73554765
   0.52592680  0.33221484  0.35024724
   0.48956615  0.35188590  0.55649549
   0.47602034  0.53772649  0.65704908
Direct configuration=    22
   0.53604645  0.71434842  0.54237841
   0.51529683  0.58248513  0.54919288
   0.51382354  0.51787485  0.43798933
   0.50866233  0.40172795  0.44879556
   0.46041825  0.41658446  0.64902538
   0.53267285  0.55905071  0.32720409
   0.57069595  0.72943324  0.44798668
   0.41315432  0.76253780  0.56564173
   0.65309325  0.74192873  0.59236446
   0.57178294  0.36528854  0.28058972
   0.50794618  0.25108848  0.35456305
   0.42507071  0.37794931  0.73417611
   0.52602708  0.33177594  0.35137805
   0.48835689  0.35187491  0.55690020
   0.47533682  0.53806004  0.65664582
Direct configuration=    23
   0.53767298  0.71452162  0.54215010
   0.51589234  0.58283101  0.54872863
   0.51378868  0.51726285  0.43755697
   0.50930580  0.40171805  0.44901509
   0.45946894  0.41814526  0.64916137
   0.53248487  0.55829587  0.32713621
   0.57438725  0.72827676  0.44578346
   0.42089156  0.76391901  0.56411356
   0.65181794  0.74143952  0.59103645
   0.57181580  0.36722806  0.28015767
   0.50734251  0.24971083  0.35500369
   0.42361547  0.37748927  0.73280190
   0.52607353  0.33143510  0.35269470
   0.48705795  0.35183031  0.55729249
   0.47464997  0.53823059  0.65614792
Direct configuration=    24
   0.53940091  0.71459885  0.54177250
   0.51640247  0.58328577  0.54816567
   0.51378709  0.51670434  0.43735129
   0.50996275  0.40155997  0.44926155
   0.45850810  0.41991661  0.64936550
   0.53230486  0.55756449  0.32701906
   0.57766154  0.72743034  0.44408939
   0.42917243  0.76510670  0.56265440
   0.65052988  0.74103065  0.59019101
   0.57233642  0.36954052  0.27839397
   0.50646419  0.24675361  0.35581148
   0.42214314  0.37693703  0.73159444
   0.52611803  0.33119193  0.35409731
   0.48567782  0.35177458  0.55767761
   0.47396936  0.53825100  0.65555605
Direct configuration=    25
   0.54127181  0.71452625  0.54116888
   0.51680925  0.58383112  0.54750701
   0.51382571  0.51623758  0.43739128
   0.51060764  0.40123460  0.44956639
   0.45754243  0.42183144  0.64961218
   0.53213520  0.55686302  0.32684552
   0.58039521  0.72689498  0.44325591
   0.43652052  0.76656556  0.56147419
   0.65019900  0.74084293  0.59017355
   0.57244733  0.37141813  0.27671802
   0.50563596  0.24357728  0.35693327
   0.42063019  0.37643017  0.73065874
   0.52620984  0.33099964  0.35545516
   0.48422976  0.35173194  0.55806254
   0.47330678  0.53814549  0.65487568
Direct configuration=    26
   0.54332480  0.71426602  0.54030497
   0.51709988  0.58444416  0.54675723
   0.51391107  0.51589413  0.43768075
   0.51121499  0.40073800  0.44996189
   0.45657504  0.42380631  0.64987999
   0.53197778  0.55619577  0.32661495
   0.58258529  0.72668326  0.44338630
   0.44171870  0.76870842  0.56073692
   0.65140173  0.74091107  0.59114621
   0.57157641  0.37228388  0.27612616
   0.50515453  0.24141398  0.35832667
   0.41908751  0.37615138  0.73001732
   0.52637570  0.33080107  0.35666599
   0.48272858  0.35172451  0.55845432
   0.47267400  0.53795049  0.65411532
Direct configuration=    27
   0.54556727  0.71382961  0.53921146
   0.51726447  0.58510036  0.54592292
   0.51405020  0.51569342  0.43820708
   0.51176171  0.40008341  0.45047619
   0.45560160  0.42574767  0.65015227
   0.53183400  0.55556474  0.32633328
   0.58436173  0.72681574  0.44430969
   0.44451842  0.77153877  0.56044304
   0.65400071  0.74110774  0.59295439
   0.56952789  0.37187886  0.27704799
   0.50518480  0.24094544  0.35995487
   0.41754840  0.37629853  0.72963609
   0.52662400  0.33055438  0.35767153
   0.48118964  0.35176940  0.55885940
   0.47208312  0.53771451  0.65328539
Direct configuration=    28
   0.54795616  0.71328380  0.53798197
   0.51729590  0.58577059  0.54502438
   0.51425120  0.51564043  0.43893565
   0.51222564  0.39930067  0.45113389
   0.45461946  0.42755688  0.65039962
   0.53170231  0.55496979  0.32601079
   0.58597943  0.72732971  0.44557866
   0.44566212  0.77455569  0.56041881
   0.65728688  0.74119197  0.59517421
   0.56643176  0.37025291  0.27935567
   0.50574194  0.24223356  0.36178209
   0.41605092  0.37703670  0.72947197
   0.52694962  0.33024206  0.35845832
   0.47962989  0.35186851  0.55928484
   0.47154811  0.53750636  0.65240383
Direct configuration=    29
   0.55041630  0.71271547  0.53674323
   0.51719489  0.58642852  0.54407397
   0.51451539  0.51572477  0.43982865
   0.51259126  0.39843236  0.45193892
   0.45362106  0.42913689  0.65062357
   0.53158386  0.55441099  0.32566109
   0.58776688  0.72826586  0.44654892
   0.44623771  0.77706276  0.56042485
   0.66040687  0.74091939  0.59729326
   0.56269798  0.36774920  0.28239217
   0.50670290  0.24478772  0.36375257
   0.41461428  0.37846938  0.72950234
   0.52733353  0.32986759  0.35905680
   0.47807190  0.35202974  0.55973035
   0.47108432  0.53738569  0.65148270
Direct configuration=    30
   0.55287159  0.71219687  0.53561242
   0.51696872  0.58705270  0.54309054
   0.51484092  0.51592263  0.44083377
   0.51284868  0.39752770  0.45288036
   0.45260166  0.43041160  0.65082331
   0.53147921  0.55388758  0.32530075
   0.59002586  0.72965243  0.44661406
   0.44712776  0.77849694  0.56026357
   0.66270291  0.74012401  0.59888226
   0.55899512  0.36504267  0.28488674
   0.50779315  0.24749920  0.36583354
   0.41322798  0.38060052  0.72974994
   0.52774587  0.32945864  0.35955030
   0.47653875  0.35225265  0.56019480
   0.47070597  0.53740694  0.65053507
Direct configuration=    31
   0.55526517  0.71177674  0.53465619
   0.51663150  0.58762950  0.54209250
   0.51522437  0.51619988  0.44189280
   0.51299396  0.39664054  0.45393049
   0.45156029  0.43133677  0.65099759
   0.53138920  0.55339659  0.32494753
   0.59289190  0.73145143  0.44553889
   0.44882901  0.77856464  0.55982183
   0.66385172  0.73874478  0.59968609
   0.55600014  0.36292706  0.28534592
   0.50865605  0.24891864  0.36804748
   0.41184952  0.38333235  0.73028289
   0.52815980  0.32906066  0.36004674
   0.47504885  0.35252840  0.56067868
   0.47042224  0.53761034  0.64957359
Direct configuration=    32
   0.55756800  0.71148133  0.53387103
   0.51620833  0.58815107  0.54110550
   0.51566349  0.51651477  0.44294170
   0.51302352  0.39582825  0.45505781
   0.45051235  0.43190414  0.65112808
   0.53131366  0.55293552  0.32461656
   0.59626788  0.73351671  0.44361269
   0.45147583  0.77723791  0.55907188
   0.66386427  0.73681476  0.59964876
   0.55393581  0.36175879  0.28317955
   0.50906294  0.24809998  0.37043650
   0.41042697  0.38648539  0.73120006
   0.52857112  0.32871406  0.36059854
   0.47360795  0.35283314  0.56118975
   0.47022767  0.53802561  0.64861363
Direct configuration=    33
   0.55976902  0.71131656  0.53320450
   0.51572253  0.58861901  0.54015367
   0.51615177  0.51682422  0.44391726
   0.51294430  0.39513733  0.45621909
   0.44946933  0.43214519  0.65120757
   0.53125167  0.55250223  0.32432082
   0.59989022  0.73560809  0.44146467
   0.45487377  0.77472405  0.55806114
   0.66306535  0.73445511  0.59891001
   0.55242322  0.36118101  0.27941549
   0.50911039  0.24544794  0.37291149
   0.40890380  0.38985238  0.73256953
   0.52899359  0.32841601  0.36115682
   0.47222157  0.35314503  0.56173697
   0.47011721  0.53864898  0.64766910
Direct configuration=    34
   0.56186271  0.71126558  0.53258104
   0.51519992  0.58903960  0.53926149
   0.51667946  0.51708577  0.44476053
   0.51276884  0.39460648  0.45736182
   0.44844627  0.43212091  0.65123725
   0.53120313  0.55209548  0.32407129
   0.60346056  0.73747002  0.43973567
   0.45850660  0.77145777  0.55691395
   0.66205187  0.73185731  0.59779859
   0.55096597  0.36060569  0.27574831
   0.50910953  0.24230370  0.37524563
   0.40726240  0.39323820  0.73437147
   0.52943236  0.32811701  0.36163830
   0.47089349  0.35344087  0.56232939
   0.47007938  0.53944853  0.64675613
Direct configuration=    35
   0.56385022  0.71128560  0.53192442
   0.51466718  0.58942381  0.53844934
   0.51723540  0.51726117  0.44542195
   0.51251148  0.39425846  0.45843531
   0.44745546  0.43191115  0.65123010
   0.53116897  0.55171447  0.32387516
   0.60674952  0.73890788  0.43885347
   0.46158082  0.76805916  0.55582394
   0.66157408  0.72924343  0.59677297
   0.54927912  0.35965211  0.27345222
   0.50933620  0.23991607  0.37720535
   0.40554559  0.39650085  0.73645906
   0.52988014  0.32776343  0.36199298
   0.46962568  0.35369941  0.56297310
   0.47009816  0.54037415  0.64589071
Direct configuration=    36
   0.56574345  0.71132276  0.53117907
   0.51414782  0.58978440  0.53773179
   0.51780759  0.51732050  0.44586675
   0.51218854  0.39409910  0.45939260
   0.44650261  0.43160074  0.65121085
   0.53114971  0.55135773  0.32373626
   0.60964293  0.73982451  0.43896343
   0.46323515  0.76518617  0.55501045
   0.66227653  0.72680206  0.59626518
   0.54729448  0.35820633  0.27308989
   0.50992560  0.23896546  0.37864108
   0.40384787  0.39955571  0.73858037
   0.53032602  0.32732532  0.36221761
   0.46841822  0.35390337  0.56366919
   0.47015679  0.54137031  0.64508549
Direct configuration=    37
   0.56756054  0.71134024  0.53033143
   0.51366161  0.59013121  0.53711374
   0.51838611  0.51724339  0.44607616
   0.51181499  0.39412002  0.46019790
   0.44558700  0.43126962  0.65120957
   0.53114539  0.55102221  0.32365508
   0.61214170  0.74022349  0.43994175
   0.46296437  0.76328101  0.55462771
   0.66437932  0.72463350  0.59647261
   0.54508226  0.35635688  0.27458990
   0.51088161  0.23956057  0.37950562
   0.40228063  0.40235375  0.74045105
   0.53075914  0.32679965  0.36234756
   0.46726937  0.35404020  0.56441326
   0.47023864  0.54238640  0.64434976
Direct configuration=    38
   0.56929758  0.71132921  0.52942742
   0.51322564  0.59046838  0.53659330
   0.51896121  0.51702228  0.44604582
   0.51140274  0.39430360  0.46083024
   0.44470674  0.43098740  0.65125293
   0.53115666  0.55070490  0.32362896
   0.61435472  0.74020143  0.44142658
   0.46101233  0.76238287  0.55467134
   0.66754874  0.72275348  0.59725282
   0.54279919  0.35435989  0.27731265
   0.51210032  0.24131466  0.37985394
   0.40093744  0.40485002  0.74183346
   0.53117065  0.32620688  0.36244824
   0.46617891  0.35410255  0.56519331
   0.47032854  0.54338095  0.64368984
Direct configuration=    39
   0.57092013  0.71130512  0.52855764
   0.51285556  0.59079306  0.53616199
   0.51952187  0.51666259  0.44578716
   0.51096062  0.39462371  0.46127751
   0.44386106  0.43080971  0.65135848
   0.53118478  0.55040335  0.32365417
   0.61647995  0.73993088  0.44287971
   0.45829461  0.76219796  0.55498150
   0.67108976  0.72113960  0.59822686
   0.54064060  0.35261892  0.28011022
   0.51338285  0.24339650  0.37985195
   0.39986579  0.40699105  0.74259912
   0.53155560  0.32558801  0.36260918
   0.46514896  0.35408866  0.56599147
   0.47041324  0.54432193  0.64311049
Direct configuration=    40
   0.57237855  0.71128523  0.52782002
   0.51256253  0.59109735  0.53580447
   0.52005962  0.51618312  0.44532527
   0.51049257  0.39504504  0.46154122
   0.44305332  0.43077583  0.65153025
   0.53123122  0.55011540  0.32372540
   0.61875170  0.73961627  0.44372621
   0.45590265  0.76234548  0.55533935
   0.67428639  0.71977186  0.59898574
   0.53876179  0.35157523  0.28166390
   0.51447364  0.24469376  0.37975536
   0.39905294  0.40872088  0.74275629
   0.53191715  0.32500032  0.36291982
   0.46418299  0.35400362  0.56678733
   0.47048264  0.54518830  0.64261396
Direct configuration=    41
   0.57364062  0.71128047  0.52728273
   0.51235508  0.59136788  0.53550122
   0.52056531  0.51561048  0.44469196
   0.51000022  0.39552960  0.46163601
   0.44228656  0.43091102  0.65175845
   0.53129706  0.54983922  0.32383546
   0.62132642  0.73940866  0.44358741
   0.45468390  0.76253619  0.55555836
   0.67663041  0.71864326  0.59923669
   0.53718588  0.35144005  0.28130085
   0.51516745  0.24430996  0.37979759
   0.39842661  0.40998948  0.74244429
   0.53226614  0.32449909  0.36341919
   0.46328297  0.35385832  0.56756191
   0.47052941  0.54596945  0.64219949
Direct configuration=    42
   0.57469989  0.71129917  0.52695988
   0.51223719  0.59158842  0.53522971
   0.52103223  0.51497700  0.44392461
   0.50948079  0.39603691  0.46158579
   0.44156753  0.43122718  0.65202146
   0.53138354  0.54957255  0.32397587
   0.62416743  0.73933078  0.44247351
   0.45510304  0.76262365  0.55552364
   0.67789299  0.71775929  0.59885376
   0.53581984  0.35200766  0.27955674
   0.51544248  0.24221925  0.38003378
   0.39787300  0.41076075  0.74189738
   0.53261102  0.32410468  0.36406714
   0.46244979  0.35366881  0.56830022
   0.47054909  0.54666315  0.64186448
Direct configuration=    43
   0.57557772  0.71134933  0.52681358
   0.51221098  0.59174140  0.53496835
   0.52145447  0.51432138  0.44306300
   0.50892877  0.39652334  0.46142000
   0.44090405  0.43172342  0.65229041
   0.53149213  0.54931341  0.32413718
   0.62703064  0.73927839  0.44077017
   0.45725346  0.76259319  0.55519658
   0.67810999  0.71713254  0.59787542
   0.53456442  0.35282823  0.27765190
   0.51545565  0.23930356  0.38033883
   0.39726731  0.41102070  0.74138255
   0.53294897  0.32378827  0.36478289
   0.46168356  0.35345523  0.56899070
   0.47053837  0.54727168  0.64160567
Direct configuration=    44
   0.57631049  0.71143196  0.52677485
   0.51227624  0.59181005  0.53469889
   0.52182724  0.51368546  0.44214902
   0.50833907  0.39694498  0.46116928
   0.44030369  0.43238661  0.65253907
   0.53162280  0.54906169  0.32430748
   0.62958067  0.73909579  0.43902282
   0.46088746  0.76254834  0.55461093
   0.67756045  0.71677631  0.59649023
   0.53337531  0.35349283  0.27665147
   0.51540441  0.23668858  0.38055525
   0.39651546  0.41079132  0.74111327
   0.53327107  0.32349910  0.36549559
   0.46098386  0.35324057  0.56962484
   0.47049503  0.54779958  0.64141878
Direct configuration=    45
   0.57693934  0.71153530  0.52676467
   0.51243076  0.59178142  0.53440677
   0.52214607  0.51310649  0.44122297
   0.50770698  0.39726302  0.46086450
   0.43976622  0.43319451  0.65275327
   0.53177755  0.54881736  0.32447441
   0.63153004  0.73865436  0.43770761
   0.46544954  0.76270109  0.55386561
   0.67672195  0.71669831  0.59500404
   0.53225305  0.35375685  0.27711558
   0.51542142  0.23518824  0.38059608
   0.39559115  0.41014436  0.74116934
   0.53356983  0.32319542  0.36616319
   0.46034940  0.35304919  0.57019645
   0.47041834  0.54825354  0.64129777
Direct configuration=    46
   0.57750541  0.71163379  0.52671023
   0.51267085  0.59164726  0.53408451
   0.52240761  0.51261511  0.44032128
   0.50702775  0.39744555  0.46053566
   0.43928448  0.43411651  0.65293106
   0.53195766  0.54858204  0.32462529
   0.63271622  0.73788998  0.43711053
   0.47015765  0.76334678  0.55310883
   0.67617197  0.71689465  0.59377402
   0.53122002  0.35354875  0.27908566
   0.51555161  0.23513889  0.38045952
   0.39454857  0.40920381  0.74147188
   0.53384235  0.32285558  0.36677390
   0.45977854  0.35290457  0.57070143
   0.47030953  0.54864193  0.64123561
Direct configuration=    47
   0.57804708  0.71169476  0.52656195
   0.51299167  0.59140790  0.53372868
   0.52260603  0.51223139  0.43947639
   0.50629819  0.39746930  0.46021130
   0.43884550  0.43511705  0.65308128
   0.53216588  0.54835689  0.32474652
   0.63312390  0.73680850  0.43729478
   0.47420659  0.76478364  0.55249482
   0.67640788  0.71734402  0.59309383
   0.53030110  0.35296275  0.28212603
   0.51575646  0.23640605  0.38021531
   0.39350004  0.40813401  0.74182973
   0.53409076  0.32247856  0.36734502
   0.45926917  0.35282850  0.57113728
   0.47017101  0.54897431  0.64122480
Direct configuration=    48
   0.57858824  0.71169239  0.52630829
   0.51338662  0.59107097  0.53334174
   0.52273729  0.51196402  0.43871649
   0.50551720  0.39732188  0.45991815
   0.43843541  0.43615808  0.65321649
   0.53240482  0.54814381  0.32482559
   0.63288520  0.73547926  0.43810027
   0.47709495  0.76715945  0.55211153
   0.67763837  0.71800266  0.59306459
   0.52950482  0.35225514  0.28536625
   0.51591284  0.23839815  0.37999445
   0.39257307  0.40711455  0.74202453
   0.53432329  0.32208316  0.36791977
   0.45881857  0.35283977  0.57150191
   0.47000577  0.54926069  0.64125743
Direct configuration=    49
   0.57912629  0.71162113  0.52598525
   0.51384947  0.59065044  0.53293044
   0.52279650  0.51181158  0.43806687
   0.50468536  0.39700272  0.45968149
   0.43804095  0.43720130  0.65334606
   0.53267732  0.54794430  0.32485047
   0.63226886  0.73402500  0.43916005
   0.47886733  0.77033260  0.55192198
   0.67969076  0.71880380  0.59354137
   0.52881200  0.35178437  0.28770066
   0.51581752  0.24013951  0.37997243
   0.39186874  0.40631078  0.74189085
   0.53455583  0.32170692  0.36855391
   0.45842405  0.35295370  0.57179338
   0.46981801  0.54951190  0.64132536
Direct configuration=    50
   0.57963748  0.71149596  0.52566301
   0.51437065  0.59016480  0.53250512
   0.52277921  0.51176177  0.43754801
   0.50380465  0.39652387  0.45952601
   0.43765216  0.43821375  0.65347232
   0.53298687  0.54776047  0.32480980
   0.63163647  0.73259942  0.43996497
   0.48001795  0.77388854  0.55178243
   0.68211724  0.71966444  0.59420548
   0.52819377  0.35181159  0.28834027
   0.51524348  0.24061421  0.38031198
   0.39143201  0.40584886  0.74136444