   15   15  300    1
  0.6786772E+02  0.7745500E-09  0.1175610E-08  0.1118000E-08  0.1000000E-14
   500.000000000000     
  CAR 
 Cluster                                 
     48      1     32
