 running    8 mpi-ranks, with    1 threads/rank, on    1 nodes
 distrk:  each k-point on    8 cores,    1 groups
 distr:  one band on    2 cores,    4 groups
 vasp.6.4.1 05Apr23 (build Jun 16 2023 21:25:53) gamma-only                     
  
 POSCAR found type information on POSCAR C F H N 
 POSCAR found :  4 types and      15 ions
 Reading from existing POTCAR
 scaLAPACK will be used
 Reading from existing POTCAR
 LDA part: xc-table for Pade appr. of Perdew
 POSCAR found type information on POSCAR C F H N 
 POSCAR found :  4 types and      15 ions
 POSCAR, INCAR and KPOINTS ok, starting setup
 FFT: planning ... GRIDC
 FFT: planning ... GRID_SOFT
 FFT: planning ... GRID
 WAVECAR not read
 prediction of wavefunctions initialized - no I/O
 entering main loop
       N       E                     dE             d eps       ncg     rms          rms(c)
RMM:   1     0.865567992245E+03    0.86557E+03   -0.11636E+04    32   0.914E+02
RMM:   2     0.448746623818E+03   -0.41682E+03   -0.46718E+03    32   0.205E+02
RMM:   3     0.264297973741E+03   -0.18445E+03   -0.28790E+03    32   0.157E+02
RMM:   4     0.103348968740E+03   -0.16095E+03   -0.19492E+03    32   0.166E+02
RMM:   5     0.347163430399E+01   -0.99877E+02   -0.95731E+02    32   0.127E+02
RMM:   6    -0.606941580409E+02   -0.64166E+02   -0.58667E+02    32   0.101E+02
RMM:   7    -0.903603597712E+02   -0.29666E+02   -0.24227E+02    32   0.628E+01
RMM:   8    -0.100974767757E+03   -0.10614E+02   -0.92226E+01    32   0.384E+01
RMM:   9    -0.103376656542E+03   -0.24019E+01   -0.22983E+01    32   0.201E+01
RMM:  10    -0.104233923643E+03   -0.85727E+00   -0.72878E+00    32   0.115E+01
RMM:  11    -0.104489281976E+03   -0.25536E+00   -0.24279E+00    32   0.635E+00
RMM:  12    -0.104585600519E+03   -0.96319E-01   -0.91205E-01    32   0.395E+00
RMM:  13    -0.104622236708E+03   -0.36636E-01   -0.36147E-01    32   0.231E+00
RMM:  14    -0.104637690900E+03   -0.15454E-01   -0.14887E-01    32   0.151E+00
RMM:  15    -0.104648278606E+03   -0.10588E-01   -0.10552E-01    72   0.915E-01
RMM:  16    -0.104649229269E+03   -0.95066E-03   -0.96921E-03    73   0.333E-01
RMM:  17    -0.104649301184E+03   -0.71915E-04   -0.71773E-04    68   0.102E-01
RMM:  18    -0.104649307247E+03   -0.60632E-05   -0.61103E-05    49   0.285E-02
RMM:  19    -0.104649307924E+03   -0.67688E-06   -0.67452E-06    39   0.129E-02
RMM:  20    -0.104649308126E+03   -0.20261E-06   -0.20356E-06    37   0.767E-03    0.170E+01
RMM:  21    -0.977178950176E+02    0.69314E+01   -0.16241E+01   112   0.164E+01    0.905E+00
RMM:  22    -0.963214967390E+02    0.13964E+01   -0.21488E+00   112   0.565E+00    0.428E+00
RMM:  23    -0.960299790478E+02    0.29152E+00   -0.54338E-01   112   0.299E+00    0.113E+00
RMM:  24    -0.960078108595E+02    0.22168E-01   -0.32417E-02   111   0.885E-01    0.515E-01
RMM:  25    -0.960016082281E+02    0.62026E-02   -0.12284E-02   110   0.415E-01    0.402E-01
RMM:  26    -0.959996612669E+02    0.19470E-02   -0.46842E-03   107   0.285E-01    0.181E-01
RMM:  27    -0.960028875964E+02   -0.32263E-02   -0.58350E-03   105   0.277E-01    0.201E-01
RMM:  28    -0.960048631567E+02   -0.19756E-02   -0.26736E-03    95   0.170E-01    0.924E-02
RMM:  29    -0.960095581664E+02   -0.46950E-02   -0.78968E-04    82   0.107E-01    0.821E-02
RMM:  30    -0.960136790033E+02   -0.41208E-02   -0.45982E-04    74   0.739E-02    0.217E-02
RMM:  31    -0.960165678831E+02   -0.28889E-02   -0.25021E-04    68   0.580E-02    0.196E-02
RMM:  32    -0.960181847197E+02   -0.16168E-02   -0.17117E-04    60   0.447E-02    0.811E-03
RMM:  33    -0.960188075057E+02   -0.62279E-03   -0.98624E-05    55   0.309E-02    0.660E-03
RMM:  34    -0.960189809084E+02   -0.17340E-03   -0.34712E-05    48   0.183E-02    0.827E-03
RMM:  35    -0.960190174641E+02   -0.36556E-04   -0.79942E-06    33   0.900E-03    0.112E-03
RMM:  36    -0.960190539860E+02   -0.36522E-04   -0.80150E-06    37   0.813E-03    0.315E-03
RMM:  37    -0.960190610753E+02   -0.70893E-05   -0.24471E-06    25   0.496E-03
      1 T=   500. E= -.95113501E+02 F= -.96019061E+02 E0= -.96023297E+02  EK= 0.90556E+00 SP= 0.00E+00 SK= 0.00E+00
 bond charge predicted
       N       E                     dE             d eps       ncg     rms          rms(c)
RMM:   1    -0.959210627846E+02    0.97991E-01   -0.45675E+00    64   0.134E+01    0.648E-01
RMM:   2    -0.959389686664E+02   -0.17906E-01   -0.24439E-01    64   0.352E+00    0.411E-01
RMM:   3    -0.959408656837E+02   -0.18970E-02   -0.45242E-02    66   0.128E+00    0.244E-01
RMM:   4    -0.959406926454E+02    0.17304E-03   -0.84881E-03    66   0.526E-01    0.161E-01
RMM:   5    -0.959405000332E+02    0.19261E-03   -0.39405E-03    67   0.312E-01    0.144E-01
RMM:   6    -0.959403225101E+02    0.17752E-03   -0.63264E-04    67   0.140E-01    0.622E-02
RMM:   7    -0.959402678649E+02    0.54645E-04   -0.32983E-04    64   0.932E-02    0.285E-02
RMM:   8    -0.959403287012E+02   -0.60836E-04   -0.64723E-05    57   0.441E-02    0.139E-02
RMM:   9    -0.959404101370E+02   -0.81436E-04   -0.55238E-05    54   0.336E-02    0.899E-03
RMM:  10    -0.959404289155E+02   -0.18778E-04   -0.10712E-05    40   0.161E-02    0.593E-03
RMM:  11    -0.959405067962E+02   -0.77881E-04   -0.12172E-05    40   0.137E-02    0.277E-03
RMM:  12    -0.959405332072E+02   -0.26411E-04   -0.38658E-06    39   0.814E-03    0.463E-03
RMM:  13    -0.959405706525E+02   -0.37445E-04   -0.54028E-06    36   0.781E-03    0.134E-03
RMM:  14    -0.959405802259E+02   -0.95734E-05   -0.20498E-06    28   0.503E-03
      2 T=   460. E= -.95108857E+02 F= -.95940580E+02 E0= -.95944856E+02  EK= 0.83170E+00 SP= 0.18E-04 SK= 0.30E-07
 bond charge predicted
 prediction of wavefunctions
       N       E                     dE             d eps       ncg     rms          rms(c)
RMM:   1    -0.957889367604E+02    0.15163E+00   -0.21455E-01    64   0.287E+00    0.176E-01
RMM:   2    -0.957896633382E+02   -0.72658E-03   -0.12839E-02    64   0.734E-01    0.106E-01
RMM:   3    -0.957897871246E+02   -0.12379E-03   -0.25268E-03    67   0.286E-01    0.748E-02
RMM:   4    -0.957897443826E+02    0.42742E-04   -0.55415E-04    65   0.129E-01    0.519E-02
RMM:   5    -0.957896340443E+02    0.11034E-03   -0.35338E-04    65   0.842E-02    0.649E-02
RMM:   6    -0.957897745681E+02   -0.14052E-03   -0.34973E-04    63   0.824E-02    0.419E-02
RMM:   7    -0.957898417902E+02   -0.67222E-04   -0.21689E-04    62   0.606E-02    0.302E-02
RMM:   8    -0.957898698404E+02   -0.28050E-04   -0.80178E-05    57   0.368E-02    0.210E-02
RMM:   9    -0.957899422806E+02   -0.72440E-04   -0.13246E-04    62   0.427E-02    0.505E-02
RMM:  10    -0.957899043362E+02    0.37944E-04   -0.19099E-05    42   0.237E-02    0.346E-02
RMM:  11    -0.957898963332E+02    0.80030E-05   -0.45749E-06    39   0.102E-02
      3 T=   383. E= -.95097973E+02 F= -.95789896E+02 E0= -.95794180E+02  EK= 0.69329E+00 SP= -.16E-02 SK= 0.24E-03
 bond charge predicted
 prediction of wavefunctions
       N       E                     dE             d eps       ncg     rms          rms(c)
RMM:   1    -0.957217398474E+02    0.68164E-01   -0.63220E-02    64   0.199E+00    0.163E-01
RMM:   2    -0.957207691141E+02    0.97073E-03   -0.49587E-03    65   0.394E-01    0.195E-01
RMM:   3    -0.957214320889E+02   -0.66297E-03   -0.84591E-04    63   0.175E-01    0.182E-01
RMM:   4    -0.957222917082E+02   -0.85962E-03   -0.13094E-03    63   0.151E-01    0.130E-01
RMM:   5    -0.957228053448E+02   -0.51364E-03   -0.15721E-03    65   0.166E-01    0.124E-01
RMM:   6    -0.957298442125E+02   -0.70389E-02   -0.67193E-03    79   0.287E-01    0.862E-01
RMM:   7    -0.957233534191E+02    0.64908E-02   -0.14538E-03    65   0.168E-01    0.361E-01
RMM:   8    -0.957224706324E+02    0.88279E-03   -0.20213E-03    68   0.167E-01    0.115E-01
RMM:   9    -0.957227155730E+02   -0.24494E-03   -0.14888E-04    66   0.735E-02    0.114E-01
RMM:  10    -0.957225548701E+02    0.16070E-03   -0.19854E-04    63   0.599E-02    0.102E-01
RMM:  11    -0.957224453046E+02    0.10957E-03   -0.12038E-04    60   0.431E-02    0.102E-01
RMM:  12    -0.957224064369E+02    0.38868E-04   -0.22114E-05    42   0.212E-02    0.103E-01
RMM:  13    -0.957224141421E+02   -0.77052E-05   -0.47320E-06    39   0.117E-02
      4 T=   347. E= -.95100372E+02 F= -.95722414E+02 E0= -.95726487E+02  EK= 0.62802E+00 SP= -.80E-02 SK= 0.20E-02
 bond charge predicted
 prediction of wavefunctions
       N       E                     dE             d eps       ncg     rms          rms(c)
RMM:   1    -0.957118916657E+02    0.10515E-01   -0.27952E-02    64   0.112E+00    0.183E-01
RMM:   2    -0.957104747172E+02    0.14169E-02   -0.33211E-03    64   0.311E-01    0.245E-01
RMM:   3    -0.957139763837E+02   -0.35017E-02   -0.57240E-03    64   0.320E-01    0.367E-01
RMM:   4    -0.957116199408E+02    0.23564E-02   -0.17351E-03    64   0.204E-01    0.207E-01
RMM:   5    -0.957083357371E+02    0.32842E-02   -0.58773E-03    66   0.280E-01    0.174E-01
RMM:   6    -0.957075060072E+02    0.82973E-03   -0.16611E-03    65   0.161E-01    0.119E-01
RMM:   7    -0.957075319691E+02   -0.25962E-04   -0.19438E-04    67   0.652E-02    0.121E-01
RMM:   8    -0.957071455701E+02    0.38640E-03   -0.29111E-04    64   0.650E-02    0.895E-02
RMM:   9    -0.957069089645E+02    0.23661E-03   -0.53237E-04    68   0.811E-02    0.417E-02
RMM:  10    -0.957068951177E+02    0.13847E-04   -0.24721E-04    67   0.617E-02    0.342E-02
RMM:  11    -0.957070095699E+02   -0.11445E-03   -0.13812E-04    63   0.491E-02    0.212E-02
RMM:  12    -0.957071163873E+02   -0.10682E-03   -0.83859E-05    59   0.406E-02    0.111E-02
RMM:  13    -0.957071786659E+02   -0.62279E-04   -0.24010E-05    44   0.212E-02    0.143E-02
RMM:  14    -0.957072103568E+02   -0.31691E-04   -0.68617E-06    39   0.115E-02    0.125E-02
RMM:  15    -0.957072349768E+02   -0.24620E-04   -0.84920E-06    40   0.984E-03    0.849E-03
RMM:  16    -0.957072432393E+02   -0.82626E-05   -0.70272E-06    39   0.101E-02
      5 T=   342. E= -.95103871E+02 F= -.95707243E+02 E0= -.95709182E+02  EK= 0.61837E+00 SP= -.21E-01 SK= 0.58E-02
 bond charge predicted
 prediction of wavefunctions
       N       E                     dE             d eps       ncg     rms          rms(c)
RMM:   1    -0.956558068376E+02    0.51428E-01   -0.56416E-02    64   0.151E+00    0.629E-01
RMM:   2    -0.956408995795E+02    0.14907E-01   -0.32102E-02    64   0.789E-01    0.301E-01
RMM:   3    -0.956393300604E+02    0.15695E-02   -0.10166E-02    66   0.440E-01    0.183E-01
RMM:   4    -0.956383371785E+02    0.99288E-03   -0.22465E-03    64   0.244E-01    0.461E-02
RMM:   5    -0.956382233674E+02    0.11381E-03   -0.95728E-04    68   0.120E-01    0.272E-02
RMM:   6    -0.956384641437E+02   -0.24078E-03   -0.18627E-04    66   0.649E-02    0.134E-02
RMM:   7    -0.956386053060E+02   -0.14116E-03   -0.55764E-05    54   0.347E-02    0.958E-03
RMM:   8    -0.956389100948E+02   -0.30479E-03   -0.75112E-05    54   0.287E-02    0.636E-03
RMM:   9    -0.956390017077E+02   -0.91613E-04   -0.18396E-05    42   0.165E-02    0.429E-03
RMM:  10    -0.956391679405E+02   -0.16623E-03   -0.37703E-05    47   0.182E-02    0.241E-03
RMM:  11    -0.956391968905E+02   -0.28950E-04   -0.51109E-06    39   0.863E-03    0.117E-03
RMM:  12    -0.956392296786E+02   -0.32788E-04   -0.58602E-06    33   0.733E-03    0.694E-04
RMM:  13    -0.956392362496E+02   -0.65711E-05   -0.21945E-06    28   0.475E-03
      6 T=   312. E= -.95103027E+02 F= -.95639236E+02 E0= -.95641173E+02  EK= 0.56462E+00 SP= -.41E-01 SK= 0.12E-01
 bond charge predicted
 prediction of wavefunctions
       N       E                     dE             d eps       ncg     rms          rms(c)
RMM:   1    -0.955221080307E+02    0.11712E+00   -0.90689E-02    64   0.187E+00    0.183E-01
RMM:   2    -0.955217360387E+02    0.37199E-03   -0.69863E-03    64   0.519E-01    0.112E-01
RMM:   3    -0.955216038780E+02    0.13216E-03   -0.17407E-03    66   0.206E-01    0.645E-02
RMM:   4    -0.955214816552E+02    0.12222E-03   -0.37486E-04    63   0.108E-01    0.192E-02
RMM:   5    -0.955214593212E+02    0.22334E-04   -0.15226E-04    64   0.532E-02    0.141E-02
RMM:   6    -0.955214800003E+02   -0.20679E-04   -0.45345E-05    49   0.302E-02    0.105E-02
RMM:   7    -0.955214910615E+02   -0.11061E-04   -0.12309E-05    40   0.186E-02    0.344E-03
RMM:   8    -0.955215279775E+02   -0.36916E-04   -0.62849E-06    39   0.108E-02    0.207E-03
RMM:   9    -0.955215513908E+02   -0.23413E-04   -0.30869E-06    38   0.699E-03    0.135E-03
RMM:  10    -0.955215892893E+02   -0.37898E-04   -0.70295E-06    35   0.691E-03    0.973E-04
RMM:  11    -0.955215952271E+02   -0.59378E-05   -0.12467E-06    23   0.415E-03
      7 T=   259. E= -.95096818E+02 F= -.95521595E+02 E0= -.95523533E+02  EK= 0.46948E+00 SP= -.68E-01 SK= 0.24E-01
 bond charge predicted
 prediction of wavefunctions
       N       E                     dE             d eps       ncg     rms          rms(c)
RMM:   1    -0.954492477424E+02    0.72342E-01   -0.90520E-02    64   0.193E+00    0.845E-02
RMM:   2    -0.954497271255E+02   -0.47938E-03   -0.53810E-03    64   0.491E-01    0.520E-02
RMM:   3    -0.954498387584E+02   -0.11163E-03   -0.11137E-03    69   0.177E-01    0.360E-02
RMM:   4    -0.954498562738E+02   -0.17515E-04   -0.19715E-04    65   0.754E-02    0.106E-02
RMM:   5    -0.954498663440E+02   -0.10070E-04   -0.52318E-05    51   0.359E-02    0.630E-03
RMM:   6    -0.954498702674E+02   -0.39234E-05   -0.90564E-06    40   0.153E-02
      8 T=   233. E= -.95092264E+02 F= -.95449870E+02 E0= -.95451811E+02  EK= 0.42086E+00 SP= -.11E+00 SK= 0.44E-01
 bond charge predicted
 prediction of wavefunctions
       N       E                     dE             d eps       ncg     rms          rms(c)
RMM:   1    -0.954888111874E+02   -0.38945E-01   -0.34022E-02    64   0.122E+00    0.609E-02
RMM:   2    -0.954889864971E+02   -0.17531E-03   -0.20639E-03    64   0.289E-01    0.411E-02
RMM:   3    -0.954890221350E+02   -0.35638E-04   -0.48311E-04    67   0.111E-01    0.222E-02
RMM:   4    -0.954890271409E+02   -0.50059E-05   -0.86322E-05    57   0.460E-02    0.992E-03
RMM:   5    -0.954890295497E+02   -0.24088E-05   -0.20508E-05    42   0.220E-02    0.355E-03
RMM:   6    -0.954890314435E+02   -0.18938E-05   -0.36945E-06    39   0.101E-02
      9 T=   266. E= -.95094298E+02 F= -.95489031E+02 E0= -.95490976E+02  EK= 0.48222E+00 SP= -.16E+00 SK= 0.69E-01
 bond charge predicted
 prediction of wavefunctions
       N       E                     dE             d eps       ncg     rms          rms(c)
RMM:   1    -0.955974902759E+02   -0.10846E+00   -0.23267E-02    64   0.967E-01    0.458E-02
RMM:   2    -0.955977020095E+02   -0.21173E-03   -0.21430E-03    66   0.244E-01    0.300E-02
RMM:   3    -0.955977461578E+02   -0.44148E-04   -0.40690E-04    68   0.949E-02    0.205E-02
RMM:   4    -0.955977600769E+02   -0.13919E-04   -0.98539E-05    54   0.442E-02    0.581E-03
RMM:   5    -0.955977653865E+02   -0.53096E-05   -0.20725E-05    41   0.206E-02    0.295E-03
RMM:   6    -0.955977681502E+02   -0.27637E-05   -0.33240E-06    38   0.964E-03
     10 T=   343. E= -.95102257E+02 F= -.95597768E+02 E0= -.95599723E+02  EK= 0.61984E+00 SP= -.22E+00 SK= 0.92E-01
Information: wavefunction orthogonal band   32  0.8791
 bond charge predicted
 prediction of wavefunctions
       N       E                     dE             d eps       ncg     rms          rms(c)
RMM:   1    -0.956575038463E+02   -0.59738E-01   -0.44480E-02    64   0.142E+00    0.687E-02
RMM:   2    -0.956577530230E+02   -0.24918E-03   -0.27684E-03    65   0.340E-01    0.427E-02
RMM:   3    -0.956577977095E+02   -0.44686E-04   -0.52606E-04    69   0.128E-01    0.292E-02
RMM:   4    -0.956578021100E+02   -0.44005E-05   -0.99426E-05    60   0.559E-02    0.887E-03
RMM:   5    -0.956578081092E+02   -0.59992E-05   -0.31577E-05    48   0.292E-02    0.627E-03
RMM:   6    -0.956578108830E+02   -0.27738E-05   -0.76533E-06    39   0.132E-02
     11 T=   402. E= -.95106995E+02 F= -.95657811E+02 E0= -.95659797E+02  EK= 0.72682E+00 SP= -.28E+00 SK= 0.11E+00
 bond charge predicted
 prediction of wavefunctions
       N       E                     dE             d eps       ncg     rms          rms(c)
RMM:   1    -0.956235399208E+02    0.34268E-01   -0.13458E-01    64   0.227E+00    0.138E-01
RMM:   2    -0.956239445639E+02   -0.40464E-03   -0.74561E-03    64   0.588E-01    0.908E-02
RMM:   3    -0.956239605254E+02   -0.15961E-04   -0.15517E-03    65   0.233E-01    0.422E-02
RMM:   4    -0.956239730587E+02   -0.12533E-04   -0.22433E-04    65   0.915E-02    0.298E-02
RMM:   5    -0.956239898332E+02   -0.16775E-04   -0.86338E-05    59   0.495E-02    0.977E-03
RMM:   6    -0.956239903203E+02   -0.48708E-06   -0.29049E-05    45   0.275E-02
     12 T=   420. E= -.95100786E+02 F= -.95623990E+02 E0= -.95626158E+02  EK= 0.75927E+00 SP= -.35E+00 SK= 0.12E+00
 bond charge predicted
 prediction of wavefunctions
       N       E                     dE             d eps       ncg     rms          rms(c)
RMM:   1    -0.955913072603E+02    0.32683E-01   -0.16150E-01    64   0.257E+00    0.209E-01
RMM:   2    -0.955906733891E+02    0.63387E-03   -0.10847E-02    64   0.685E-01    0.192E-01
RMM:   3    -0.955907886673E+02   -0.11528E-03   -0.49555E-03    65   0.329E-01    0.220E-01
RMM:   4    -0.955905021419E+02    0.28653E-03   -0.93632E-04    64   0.171E-01    0.129E-01
RMM:   5    -0.955905528062E+02   -0.50664E-04   -0.12529E-03    64   0.167E-01    0.130E-01
RMM:   6    -0.955901703351E+02    0.38247E-03   -0.23018E-04    63   0.940E-02    0.359E-02
RMM:   7    -0.955901977342E+02   -0.27399E-04   -0.15410E-04    60   0.504E-02    0.238E-02
RMM:   8    -0.955902142317E+02   -0.16497E-04   -0.19263E-05    41   0.248E-02    0.885E-03
RMM:   9    -0.955902389845E+02   -0.24753E-04   -0.76561E-06    40   0.131E-02    0.739E-03
RMM:  10    -0.955902653592E+02   -0.26375E-04   -0.45838E-06    39   0.847E-03    0.206E-03
RMM:  11    -0.955902842165E+02   -0.18857E-04   -0.29844E-06    32   0.579E-03    0.269E-03
RMM:  12    -0.955902960787E+02   -0.11862E-04   -0.19655E-06    25   0.482E-03    0.661E-04
RMM:  13    -0.955903019229E+02   -0.58442E-05   -0.14253E-06    26   0.447E-03
     13 T=   438. E= -.95097497E+02 F= -.95590302E+02 E0= -.95594404E+02  EK= 0.79296E+00 SP= -.43E+00 SK= 0.13E+00
 bond charge predicted
 prediction of wavefunctions
       N       E                     dE             d eps       ncg     rms          rms(c)
RMM:   1    -0.956133336854E+02   -0.23038E-01   -0.79308E-02    64   0.164E+00    0.671E-01
RMM:   2    -0.955925723950E+02    0.20761E-01   -0.41857E-02    64   0.895E-01    0.318E-01
RMM:   3    -0.955922303884E+02    0.34201E-03   -0.10226E-02    67   0.470E-01    0.292E-01
RMM:   4    -0.955974354345E+02   -0.52050E-02   -0.81711E-03    64   0.370E-01    0.584E-01
RMM:   5    -0.955904251528E+02    0.70103E-02   -0.24556E-03    64   0.260E-01    0.829E-02
RMM:   6    -0.955911855127E+02   -0.76036E-03   -0.22355E-04    63   0.836E-02    0.207E-01
RMM:   7    -0.955908520829E+02    0.33343E-03   -0.56584E-04    63   0.907E-02    0.398E-02
RMM:   8    -0.955910180834E+02   -0.16600E-03   -0.24904E-04    66   0.655E-02    0.101E-01
RMM:   9    -0.955912386971E+02   -0.22061E-03   -0.28868E-04    66   0.652E-02    0.989E-02
RMM:  10    -0.955912879488E+02   -0.49252E-04   -0.29373E-05    45   0.336E-02    0.879E-02
RMM:  11    -0.955913084822E+02   -0.20533E-04   -0.43597E-05    47   0.242E-02    0.654E-03
RMM:  12    -0.955914085408E+02   -0.10006E-03   -0.13202E-05    41   0.161E-02    0.207E-02
RMM:  13    -0.955914577905E+02   -0.49250E-04   -0.10152E-05    41   0.947E-03    0.707E-03
RMM:  14    -0.955914794725E+02   -0.21682E-04   -0.55792E-06    39   0.804E-03    0.451E-03
RMM:  15    -0.955914888687E+02   -0.93963E-05   -0.25792E-06    29   0.541E-03
     14 T=   475. E= -.95102884E+02 F= -.95591489E+02 E0= -.95595479E+02  EK= 0.85970E+00 SP= -.50E+00 SK= 0.13E+00
 bond charge predicted
 prediction of wavefunctions
       N       E                     dE             d eps       ncg     rms          rms(c)
RMM:   1    -0.955707358445E+02    0.20744E-01   -0.13397E-01    64   0.227E+00    0.417E-01
RMM:   2    -0.955627656990E+02    0.79701E-02   -0.17222E-02    64   0.720E-01    0.169E-01
RMM:   3    -0.955625817124E+02    0.18399E-03   -0.27446E-03    65   0.296E-01    0.108E-01
RMM:   4    -0.955624031130E+02    0.17860E-03   -0.11509E-03    64   0.166E-01    0.581E-02
RMM:   5    -0.955625834144E+02   -0.18030E-03   -0.25736E-04    63   0.829E-02    0.112E-01
RMM:   6    -0.955624198209E+02    0.16359E-03   -0.14933E-04    66   0.517E-02    0.219E-02
RMM:   7    -0.955624781639E+02   -0.58343E-04   -0.30323E-05    45   0.307E-02    0.731E-03
RMM:   8    -0.955625130300E+02   -0.34866E-04   -0.92602E-06    39   0.149E-02    0.685E-03
RMM:   9    -0.955625910169E+02   -0.77987E-04   -0.12730E-05    41   0.135E-02    0.102E-02
RMM:  10    -0.955626114720E+02   -0.20455E-04   -0.42832E-06    39   0.763E-03    0.748E-03
RMM:  11    -0.955626451663E+02   -0.33694E-04   -0.99928E-06    41   0.925E-03    0.510E-03
RMM:  12    -0.955626489443E+02   -0.37780E-05   -0.12693E-06    28   0.480E-03
     15 T=   501. E= -.95103891E+02 F= -.95562649E+02 E0= -.95566648E+02  EK= 0.90719E+00 SP= -.58E+00 SK= 0.13E+00
 bond charge predicted
 prediction of wavefunctions
       N       E                     dE             d eps       ncg     rms          rms(c)
RMM:   1    -0.954928113188E+02    0.69834E-01   -0.14543E-01    64   0.234E+00    0.277E-01
RMM:   2    -0.954943609772E+02   -0.15497E-02   -0.11329E-02    64   0.653E-01    0.299E-01
RMM:   3    -0.954926288620E+02    0.17321E-02   -0.21035E-03    64   0.266E-01    0.139E-01
RMM:   4    -0.954926344799E+02   -0.56178E-05   -0.11016E-03    63   0.157E-01    0.950E-02
RMM:   5    -0.954926171271E+02    0.17353E-04   -0.31129E-04    63   0.969E-02    0.525E-02
RMM:   6    -0.954926057546E+02    0.11373E-04   -0.70634E-05    56   0.439E-02    0.143E-02
RMM:   7    -0.954926176669E+02   -0.11912E-04   -0.11696E-05    40   0.196E-02    0.494E-03
RMM:   8    -0.954926239833E+02   -0.63163E-05   -0.61624E-06    39   0.116E-02
     16 T=   507. E= -.95102844E+02 F= -.95492624E+02 E0= -.95496752E+02  EK= 0.91742E+00 SP= -.66E+00 SK= 0.13E+00
 bond charge predicted
 prediction of wavefunctions
       N       E                     dE             d eps       ncg     rms          rms(c)
RMM:   1    -0.954081648506E+02    0.84453E-01   -0.11363E-01    64   0.217E+00    0.154E-01
RMM:   2    -0.954087667429E+02   -0.60189E-03   -0.71987E-03    64   0.557E-01    0.139E-01
RMM:   3    -0.954085926067E+02    0.17414E-03   -0.14039E-03    67   0.209E-01    0.709E-02
RMM:   4    -0.954085997867E+02   -0.71799E-05   -0.35265E-04    63   0.102E-01    0.353E-02
RMM:   5    -0.954086217887E+02   -0.22002E-04   -0.12746E-04    64   0.573E-02    0.212E-02
RMM:   6    -0.954086284718E+02   -0.66831E-05   -0.26665E-05    44   0.257E-02
     17 T=   505. E= -.95101004E+02 F= -.95408628E+02 E0= -.95412899E+02  EK= 0.91362E+00 SP= -.74E+00 SK= 0.13E+00
 bond charge predicted
 prediction of wavefunctions
       N       E                     dE             d eps       ncg     rms          rms(c)
RMM:   1    -0.953434749263E+02    0.65147E-01   -0.10090E-01    64   0.200E+00    0.111E-01
RMM:   2    -0.953439408704E+02   -0.46594E-03   -0.62097E-03    64   0.495E-01    0.736E-02
RMM:   3    -0.953440371076E+02   -0.96237E-04   -0.13945E-03    71   0.185E-01    0.532E-02
RMM:   4    -0.953440350946E+02    0.20130E-05   -0.25188E-04    63   0.811E-02    0.203E-02
RMM:   5    -0.953440498019E+02   -0.14707E-04   -0.86038E-05    57   0.426E-02    0.116E-02
RMM:   6    -0.953440541730E+02   -0.43711E-05   -0.21626E-05    43   0.206E-02
     18 T=   513. E= -.95100089E+02 F= -.95344054E+02 E0= -.95348319E+02  EK= 0.92767E+00 SP= -.81E+00 SK= 0.13E+00
 bond charge predicted
 prediction of wavefunctions
       N       E                     dE             d eps       ncg     rms          rms(c)
RMM:   1    -0.953113327787E+02    0.32717E-01   -0.90394E-02    64   0.191E+00    0.978E-02
RMM:   2    -0.953117986715E+02   -0.46589E-03   -0.55719E-03    64   0.452E-01    0.674E-02
RMM:   3    -0.953118744208E+02   -0.75749E-04   -0.13306E-03    68   0.174E-01    0.445E-02
RMM:   4    -0.953118469975E+02    0.27423E-04   -0.27133E-04    67   0.812E-02    0.259E-02
RMM:   5    -0.953118147235E+02    0.32274E-04   -0.12439E-04    63   0.495E-02    0.251E-02
RMM:   6    -0.953118370652E+02   -0.22342E-04   -0.26027E-05    43   0.269E-02    0.245E-02
RMM:   7    -0.953118590002E+02   -0.21935E-04   -0.44529E-05    48   0.268E-02    0.182E-02
RMM:   8    -0.953119012166E+02   -0.42216E-04   -0.23757E-04    71   0.531E-02    0.169E-02
RMM:   9    -0.953119029057E+02   -0.16891E-05   -0.11170E-05    40   0.203E-02
     19 T=   537. E= -.95103392E+02 F= -.95311903E+02 E0= -.95315725E+02  EK= 0.97153E+00 SP= -.89E+00 SK= 0.12E+00
 bond charge predicted
 prediction of wavefunctions
       N       E                     dE             d eps       ncg     rms          rms(c)
RMM:   1    -0.952690324443E+02    0.42869E-01   -0.10938E-01    64   0.223E+00    0.111E-01
RMM:   2    -0.952695710386E+02   -0.53859E-03   -0.70219E-03    64   0.525E-01    0.740E-02
RMM:   3    -0.952696200646E+02   -0.49026E-04   -0.18278E-03    66   0.215E-01    0.538E-02
RMM:   4    -0.952695867655E+02    0.33299E-04   -0.41365E-04    68   0.101E-01    0.274E-02
RMM:   5    -0.952695597634E+02    0.27002E-04   -0.15866E-04    63   0.591E-02    0.696E-03
RMM:   6    -0.952695727893E+02   -0.13026E-04   -0.55445E-05    53   0.323E-02    0.580E-03
RMM:   7    -0.952695934116E+02   -0.20622E-04   -0.96100E-06    40   0.161E-02    0.319E-03
RMM:   8    -0.952696099129E+02   -0.16501E-04   -0.35609E-06    39   0.957E-03    0.275E-03
RMM:   9    -0.952696432245E+02   -0.33312E-04   -0.42367E-06    38   0.763E-03    0.137E-03
RMM:  10    -0.952696570112E+02   -0.13787E-04   -0.21449E-06    33   0.541E-03    0.100E-03
RMM:  11    -0.952696758129E+02   -0.18802E-04   -0.32208E-06    32   0.582E-03    0.505E-04
RMM:  12    -0.952696778664E+02   -0.20534E-05   -0.82531E-07    21   0.375E-03
     20 T=   557. E= -.95107030E+02 F= -.95269678E+02 E0= -.95271919E+02  EK= 0.10071E+01 SP= -.96E+00 SK= 0.11E+00
 bond charge predicted
 prediction of wavefunctions
       N       E                     dE             d eps       ncg     rms          rms(c)
RMM:   1    -0.951974849277E+02    0.72191E-01   -0.18435E-01    64   0.270E+00    0.337E-01
RMM:   2    -0.951942536837E+02    0.32312E-02   -0.17751E-02    64   0.791E-01    0.156E-01
RMM:   3    -0.951940541977E+02    0.19949E-03   -0.63677E-03    66   0.371E-01    0.106E-01
RMM:   4    -0.951938239698E+02    0.23023E-03   -0.78957E-04    64   0.165E-01    0.400E-02
RMM:   5    -0.951937696826E+02    0.54287E-04   -0.37973E-04    64   0.941E-02    0.179E-02
RMM:   6    -0.951938283495E+02   -0.58667E-04   -0.18616E-04    67   0.580E-02    0.126E-02
RMM:   7    -0.951939281481E+02   -0.99799E-04   -0.42019E-05    51   0.342E-02    0.550E-03
RMM:   8    -0.951940059974E+02   -0.77849E-04   -0.16377E-05    42   0.174E-02    0.469E-03
RMM:   9    -0.951941357104E+02   -0.12971E-03   -0.26690E-05    43   0.169E-02    0.332E-03
RMM:  10    -0.951941593609E+02   -0.23651E-04   -0.48665E-06    39   0.920E-03    0.264E-03
RMM:  11    -0.951942048110E+02   -0.45450E-04   -0.87672E-06    40   0.986E-03    0.114E-03
RMM:  12    -0.951942137408E+02   -0.89298E-05   -0.21274E-06    29   0.549E-03
     21 T=   563. E= -.95099577E+02 F= -.95194214E+02 E0= -.95196394E+02  EK= 0.10187E+01 SP= -.10E+01 SK= 0.10E+00
 bond charge predicted
 prediction of wavefunctions
       N       E                     dE             d eps       ncg     rms          rms(c)
RMM:   1    -0.952037764249E+02   -0.95716E-02   -0.32585E-01    64   0.361E+00    0.278E-01
RMM:   2    -0.952038876620E+02   -0.11124E-03   -0.17787E-02    64   0.917E-01    0.181E-01
RMM:   3    -0.952036483133E+02    0.23935E-03   -0.54967E-03    65   0.404E-01    0.762E-02
RMM:   4    -0.952036020442E+02    0.46269E-04   -0.81272E-04    64   0.176E-01    0.460E-02
RMM:   5    -0.952035740908E+02    0.27953E-04   -0.31061E-04    66   0.929E-02    0.170E-02
RMM:   6    -0.952035978108E+02   -0.23720E-04   -0.11120E-04    66   0.507E-02    0.149E-02
RMM:   7    -0.952036232126E+02   -0.25402E-04   -0.17321E-05    42   0.231E-02    0.631E-03
RMM:   8    -0.952036445776E+02   -0.21365E-04   -0.85446E-06    40   0.141E-02    0.221E-03
RMM:   9    -0.952036819349E+02   -0.37357E-04   -0.55679E-06    39   0.960E-03    0.305E-03
RMM:  10    -0.952036978374E+02   -0.15902E-04   -0.24635E-06    35   0.581E-03    0.119E-03
RMM:  11    -0.952037150556E+02   -0.17218E-04   -0.31681E-06    33   0.564E-03    0.115E-03
RMM:  12    -0.952037219192E+02   -0.68636E-05   -0.16549E-06    25   0.432E-03
     22 T=   613. E= -.95096479E+02 F= -.95203722E+02 E0= -.95205800E+02  EK= 0.11090E+01 SP= -.11E+01 SK= 0.93E-01
 bond charge predicted
 prediction of wavefunctions
       N       E                     dE             d eps       ncg     rms          rms(c)
RMM:   1    -0.953227653443E+02   -0.11905E+00   -0.15247E-01    64   0.259E+00    0.147E-01
RMM:   2    -0.953233682333E+02   -0.60289E-03   -0.93349E-03    64   0.605E-01    0.957E-02
RMM:   3    -0.953234536761E+02   -0.85443E-04   -0.20706E-03    65   0.241E-01    0.403E-02
RMM:   4    -0.953234929591E+02   -0.39283E-04   -0.44918E-04    69   0.101E-01    0.275E-02
RMM:   5    -0.953235090097E+02   -0.16051E-04   -0.10343E-04    61   0.491E-02    0.773E-03
RMM:   6    -0.953235112700E+02   -0.22603E-05   -0.16958E-05    42   0.217E-02
     23 T=   715. E= -.95112993E+02 F= -.95323511E+02 E0= -.95325504E+02  EK= 0.12940E+01 SP= -.12E+01 SK= 0.72E-01
Information: wavefunction orthogonal band   32  0.8824
 bond charge predicted
 prediction of wavefunctions
       N       E                     dE             d eps       ncg     rms          rms(c)
RMM:   1    -0.953443737377E+02   -0.20865E-01   -0.13386E-01    64   0.254E+00    0.129E-01
RMM:   2    -0.953449307661E+02   -0.55703E-03   -0.68450E-03    64   0.525E-01    0.830E-02
RMM:   3    -0.953450346043E+02   -0.10384E-03   -0.14271E-03    67   0.201E-01    0.403E-02
RMM:   4    -0.953450526293E+02   -0.18025E-04   -0.23976E-04    64   0.864E-02    0.122E-02
RMM:   5    -0.953450640817E+02   -0.11452E-04   -0.83416E-05    59   0.435E-02    0.795E-03
RMM:   6    -0.953450675570E+02   -0.34753E-05   -0.96881E-06    40   0.161E-02
     24 T=   768. E= -.95116664E+02 F= -.95345068E+02 E0= -.95347025E+02  EK= 0.13902E+01 SP= -.12E+01 SK= 0.45E-01
 bond charge predicted
 prediction of wavefunctions
       N       E                     dE             d eps       ncg     rms          rms(c)
RMM:   1    -0.952330074245E+02    0.11206E+00   -0.27887E-01    64   0.342E+00    0.184E-01
RMM:   2    -0.952339455450E+02   -0.93812E-03   -0.13563E-02    64   0.770E-01    0.115E-01
RMM:   3    -0.952340686804E+02   -0.12314E-03   -0.27605E-03    67   0.284E-01    0.550E-02
RMM:   4    -0.952340933199E+02   -0.24640E-04   -0.47844E-04    66   0.116E-01    0.253E-02
RMM:   5    -0.952341048824E+02   -0.11563E-04   -0.12061E-04    64   0.560E-02    0.103E-02
RMM:   6    -0.952341097426E+02   -0.48602E-05   -0.18988E-05    44   0.232E-02
     25 T=   747. E= -.95103211E+02 F= -.95234110E+02 E0= -.95236063E+02  EK= 0.13525E+01 SP= -.12E+01 SK= 0.23E-01
 bond charge predicted
 prediction of wavefunctions
       N       E                     dE             d eps       ncg     rms          rms(c)
RMM:   1    -0.951806484616E+02    0.53456E-01   -0.22641E-01    64   0.329E+00    0.149E-01
RMM:   2    -0.951816168635E+02   -0.96840E-03   -0.11661E-02    64   0.752E-01    0.101E-01
RMM:   3    -0.951817191463E+02   -0.10228E-03   -0.19803E-03    66   0.280E-01    0.485E-02
RMM:   4    -0.951817588876E+02   -0.39741E-04   -0.41297E-04    66   0.114E-01    0.236E-02
RMM:   5    -0.951817790867E+02   -0.20199E-04   -0.12705E-04    63   0.574E-02    0.107E-02
RMM:   6    -0.951817835762E+02   -0.44894E-05   -0.17718E-05    42   0.231E-02
     26 T=   744. E= -.95097701E+02 F= -.95181784E+02 E0= -.95183777E+02  EK= 0.13456E+01 SP= -.13E+01 SK= 0.10E-01
 bond charge predicted
 prediction of wavefunctions
       N       E                     dE             d eps       ncg     rms          rms(c)
RMM:   1    -0.952739690388E+02   -0.92190E-01   -0.90443E-02    64   0.218E+00    0.110E-01
RMM:   2    -0.952744771484E+02   -0.50811E-03   -0.55103E-03    67   0.477E-01    0.787E-02
RMM:   3    -0.952745364884E+02   -0.59340E-04   -0.11345E-03    65   0.191E-01    0.486E-02
RMM:   4    -0.952744655115E+02    0.70977E-04   -0.50761E-04    67   0.106E-01    0.541E-02
RMM:   5    -0.952745645806E+02   -0.99069E-04   -0.19720E-04    63   0.699E-02    0.346E-02
RMM:   6    -0.952746429509E+02   -0.78370E-04   -0.33061E-04    63   0.697E-02    0.285E-02
RMM:   7    -0.952747322104E+02   -0.89259E-04   -0.27204E-04    65   0.606E-02    0.390E-02
RMM:   8    -0.952746174092E+02    0.11480E-03   -0.24225E-04    65   0.637E-02    0.345E-02
RMM:   9    -0.952744514343E+02    0.16597E-03   -0.58239E-04    69   0.835E-02    0.493E-02
RMM:  10    -0.952746073012E+02   -0.15587E-03   -0.32719E-04    66   0.739E-02    0.234E-02
RMM:  11    -0.952748565608E+02   -0.24926E-03   -0.12010E-03    83   0.115E-01    0.594E-02
RMM:  12    -0.952749285917E+02   -0.72031E-04   -0.50818E-05    52   0.330E-02    0.664E-02
RMM:  13    -0.952748417759E+02    0.86816E-04   -0.33948E-05    45   0.241E-02    0.550E-02
RMM:  14    -0.952745621147E+02    0.27966E-03   -0.16186E-03    95   0.132E-01    0.325E-02
RMM:  15    -0.952744610764E+02    0.10104E-03   -0.17318E-04    71   0.440E-02    0.521E-02
RMM:  16    -0.952741505116E+02    0.31056E-03   -0.35084E-04    79   0.622E-02    0.994E-02
RMM:  17    -0.952739477646E+02    0.20275E-03   -0.77241E-05    61   0.341E-02    0.115E-01
RMM:  18    -0.952738948472E+02    0.52917E-04   -0.12189E-05    40   0.183E-02    0.116E-01
RMM:  19    -0.952738452477E+02    0.49600E-04   -0.81661E-06    39   0.126E-02    0.117E-01
RMM:  20    -0.952737052489E+02    0.14000E-03   -0.39683E-05    47   0.213E-02    0.117E-01
RMM:  21    -0.952734086292E+02    0.29662E-03   -0.17770E-04    69   0.438E-02    0.844E-02
RMM:  22    -0.952734063087E+02    0.23205E-05   -0.37023E-06    39   0.105E-02
     27 T=   803. E= -.95106264E+02 F= -.95273406E+02 E0= -.95277687E+02  EK= 0.14523E+01 SP= -.13E+01 SK= 0.19E-02
 bond charge predicted
 prediction of wavefunctions
       N       E                     dE             d eps       ncg     rms          rms(c)
RMM:   1    -0.954246894933E+02   -0.15128E+00   -0.87616E-02    64   0.193E+00    0.718E-01
RMM:   2    -0.954003852004E+02    0.24304E-01   -0.45871E-02    64   0.923E-01    0.399E-01
RMM:   3    -0.954019221844E+02   -0.15370E-02   -0.20465E-02    65   0.581E-01    0.372E-01
RMM:   4    -0.954059194081E+02   -0.39972E-02   -0.16069E-02    64   0.528E-01    0.577E-01
RMM:   5    -0.953986667284E+02    0.72527E-02   -0.21176E-03    64   0.274E-01    0.307E-01
RMM:   6    -0.953977925496E+02    0.87418E-03   -0.63452E-04    63   0.121E-01    0.523E-02
RMM:   7    -0.953986006022E+02   -0.80805E-03   -0.17658E-04    63   0.662E-02    0.221E-01
RMM:   8    -0.953982061558E+02    0.39445E-03   -0.60406E-04    66   0.865E-02    0.936E-02
RMM:   9    -0.953983472644E+02   -0.14111E-03   -0.13838E-04    61   0.615E-02    0.355E-02
RMM:  10    -0.953985501823E+02   -0.20292E-03   -0.90901E-05    59   0.389E-02    0.656E-02
RMM:  11    -0.953985893656E+02   -0.39183E-04   -0.22623E-05    43   0.215E-02    0.659E-03
RMM:  12    -0.953987014597E+02   -0.11209E-03   -0.19540E-05    41   0.149E-02    0.186E-02
RMM:  13    -0.953987271580E+02   -0.25698E-04   -0.63860E-06    36   0.814E-03    0.736E-03
RMM:  14    -0.953987569080E+02   -0.29750E-04   -0.99235E-06    41   0.952E-03    0.102E-02
RMM:  15    -0.953987620970E+02   -0.51889E-05   -0.19158E-06    31   0.571E-03
     28 T=   867. E= -.95116099E+02 F= -.95398762E+02 E0= -.95402728E+02  EK= 0.15699E+01 SP= -.13E+01 SK= 0.10E-02
 bond charge predicted
 prediction of wavefunctions
       N       E                     dE             d eps       ncg     rms          rms(c)
RMM:   1    -0.954219023007E+02   -0.23145E-01   -0.14813E-01    64   0.247E+00    0.511E-01
RMM:   2    -0.954253500345E+02   -0.34477E-02   -0.32587E-02    64   0.829E-01    0.419E-01
RMM:   3    -0.954197582349E+02    0.55918E-02   -0.44902E-03    64   0.397E-01    0.227E-01
RMM:   4    -0.954199980103E+02   -0.23978E-03   -0.36134E-03    64   0.259E-01    0.252E-01
RMM:   5    -0.954194659036E+02    0.53211E-03   -0.80378E-04    63   0.162E-01    0.136E-01
RMM:   6    -0.954193780979E+02    0.87806E-04   -0.11512E-04    65   0.606E-02    0.263E-02
RMM:   7    -0.954194102717E+02   -0.32174E-04   -0.37143E-05    48   0.293E-02    0.254E-02
RMM:   8    -0.954194236045E+02   -0.13333E-04   -0.15149E-05    41   0.183E-02    0.410E-03
RMM:   9    -0.954194435687E+02   -0.19964E-04   -0.57470E-06    39   0.119E-02    0.575E-03
RMM:  10    -0.954194684011E+02   -0.24832E-04   -0.28443E-06    40   0.713E-03    0.249E-03
RMM:  11    -0.954194776604E+02   -0.92593E-05   -0.11736E-06    26   0.420E-03
     29 T=   863. E= -.95117865E+02 F= -.95419478E+02 E0= -.95423473E+02  EK= 0.15610E+01 SP= -.13E+01 SK= 0.13E-01
Information: wavefunction orthogonal band   31  0.8857
 bond charge predicted
 prediction of wavefunctions
       N       E                     dE             d eps       ncg     rms          rms(c)
RMM:   1    -0.953098941055E+02    0.10957E+00   -0.19434E-01    64   0.288E+00    0.187E-01
RMM:   2    -0.953111597743E+02   -0.12657E-02   -0.13064E-02    64   0.716E-01    0.174E-01
RMM:   3    -0.953109846278E+02    0.17515E-03   -0.27827E-03    68   0.274E-01    0.909E-02
RMM:   4    -0.953110081675E+02   -0.23540E-04   -0.47683E-04    65   0.121E-01    0.534E-02
RMM:   5    -0.953110335434E+02   -0.25376E-04   -0.16057E-04    63   0.684E-02    0.191E-02
RMM:   6    -0.953110414710E+02   -0.79276E-05   -0.37376E-05    48   0.313E-02
     30 T=   780. E= -.95104169E+02 F= -.95311041E+02 E0= -.95315286E+02  EK= 0.14123E+01 SP= -.12E+01 SK= 0.35E-01
 bond charge predicted
 prediction of wavefunctions
       N       E                     dE             d eps       ncg     rms          rms(c)
RMM:   1    -0.952625993598E+02    0.48434E-01   -0.38952E-01    64   0.387E+00    0.392E-01
RMM:   2    -0.952615910908E+02    0.10083E-02   -0.25236E-02    64   0.104E+00    0.219E-01
RMM:   3    -0.952613316490E+02    0.25944E-03   -0.55359E-03    67   0.415E-01    0.147E-01
RMM:   4    -0.952610457366E+02    0.28591E-03   -0.16406E-03    65   0.209E-01    0.592E-02
RMM:   5    -0.952609740101E+02    0.71727E-04   -0.57485E-04    67   0.117E-01    0.339E-02
RMM:   6    -0.952609666829E+02    0.73272E-05   -0.24419E-04    69   0.648E-02    0.161E-02
RMM:   7    -0.952610027532E+02   -0.36070E-04   -0.53818E-05    53   0.373E-02    0.999E-03
RMM:   8    -0.952610517934E+02   -0.49040E-04   -0.17640E-05    42   0.217E-02    0.468E-03
RMM:   9    -0.952610942138E+02   -0.42420E-04   -0.10379E-05    40   0.134E-02    0.284E-03
RMM:  10    -0.952611635855E+02   -0.69372E-04   -0.11678E-05    41   0.110E-02    0.248E-03
RMM:  11    -0.952612009375E+02   -0.37352E-04   -0.56124E-06    39   0.778E-03    0.167E-03
RMM:  12    -0.952612212242E+02   -0.20287E-04   -0.39321E-06    30   0.609E-03    0.792E-04
RMM:  13    -0.952612285833E+02   -0.73590E-05   -0.20144E-06    25   0.472E-03
     31 T=   722. E= -.95093301E+02 F= -.95261229E+02 E0= -.95263462E+02  EK= 0.13059E+01 SP= -.12E+01 SK= 0.58E-01
 bond charge predicted
 prediction of wavefunctions
       N       E                     dE             d eps       ncg     rms          rms(c)
RMM:   1    -0.954321977908E+02   -0.17098E+00   -0.14860E-01    64   0.257E+00    0.557E-01
RMM:   2    -0.954252878468E+02    0.69099E-02   -0.28151E-02    64   0.845E-01    0.306E-01
RMM:   3    -0.954239649582E+02    0.13229E-02   -0.74214E-03    67   0.400E-01    0.162E-01
RMM:   4    -0.954232772442E+02    0.68771E-03   -0.19650E-03    64   0.243E-01    0.384E-02
RMM:   5    -0.954232608522E+02    0.16392E-04   -0.55163E-04    68   0.110E-01    0.242E-02
RMM:   6    -0.954234196568E+02   -0.15880E-03   -0.22818E-04    67   0.668E-02    0.202E-02
RMM:   7    -0.954234919512E+02   -0.72294E-04   -0.38792E-05    50   0.332E-02    0.115E-02
RMM:   8    -0.954236699658E+02   -0.17801E-03   -0.53361E-05    51   0.296E-02    0.561E-03
RMM:   9    -0.954237792203E+02   -0.10925E-03   -0.18013E-05    41   0.165E-02    0.314E-03
RMM:  10    -0.954239006945E+02   -0.12147E-03   -0.25109E-05    45   0.145E-02    0.190E-03
RMM:  11    -0.954239302957E+02   -0.29601E-04   -0.52065E-06    37   0.799E-03    0.108E-03
RMM:  12    -0.954239509921E+02   -0.20696E-04   -0.40630E-06    33   0.628E-03    0.506E-04
RMM:  13    -0.954239579339E+02   -0.69418E-05   -0.17394E-06    25   0.458E-03
     32 T=   757. E= -.95108674E+02 F= -.95423958E+02 E0= -.95425978E+02  EK= 0.13707E+01 SP= -.11E+01 SK= 0.84E-01
 bond charge predicted
 prediction of wavefunctions
       N       E                     dE             d eps       ncg     rms          rms(c)
RMM:   1    -0.956038896522E+02   -0.17994E+00   -0.90138E-02    64   0.213E+00    0.155E-01
RMM:   2    -0.956040285201E+02   -0.13887E-03   -0.48630E-03    64   0.432E-01    0.103E-01
RMM:   3    -0.956039567677E+02    0.71752E-04   -0.11537E-03    65   0.179E-01    0.364E-02
RMM:   4    -0.956039560962E+02    0.67152E-06   -0.22698E-04    68   0.776E-02    0.151E-02
RMM:   5    -0.956039538096E+02    0.22866E-05   -0.40367E-05    47   0.347E-02    0.760E-03
RMM:   6    -0.956039557389E+02   -0.19293E-05   -0.10354E-05    39   0.165E-02
     33 T=   791. E= -.95118857E+02 F= -.95603956E+02 E0= -.95605986E+02  EK= 0.14316E+01 SP= -.11E+01 SK= 0.13E+00
 bond charge predicted
 prediction of wavefunctions
       N       E                     dE             d eps       ncg     rms          rms(c)
RMM:   1    -0.956104437252E+02   -0.64899E-02   -0.17841E-01    64   0.297E+00    0.160E-01
RMM:   2    -0.956109196664E+02   -0.47594E-03   -0.82266E-03    65   0.600E-01    0.105E-01
RMM:   3    -0.956109016890E+02    0.17977E-04   -0.15795E-03    64   0.229E-01    0.437E-02
RMM:   4    -0.956109373848E+02   -0.35696E-04   -0.29671E-04    68   0.936E-02    0.266E-02
RMM:   5    -0.956109603385E+02   -0.22954E-04   -0.68827E-05    56   0.459E-02    0.100E-02
RMM:   6    -0.956109690828E+02   -0.87444E-05   -0.15114E-05    39   0.215E-02
     34 T=   729. E= -.95110640E+02 F= -.95610969E+02 E0= -.95613112E+02  EK= 0.13187E+01 SP= -.99E+00 SK= 0.17E+00
 bond charge predicted
 prediction of wavefunctions
       N       E                     dE             d eps       ncg     rms          rms(c)
RMM:   1    -0.955048712522E+02    0.10609E+00   -0.18133E-01    64   0.267E+00    0.146E-01
RMM:   2    -0.955055006286E+02   -0.62938E-03   -0.99108E-03    64   0.662E-01    0.918E-02
RMM:   3    -0.955055977576E+02   -0.97129E-04   -0.21031E-03    65   0.252E-01    0.487E-02
RMM:   4    -0.955056296083E+02   -0.31851E-04   -0.38026E-04    69   0.103E-01    0.286E-02
RMM:   5    -0.955056498763E+02   -0.20268E-04   -0.90421E-05    59   0.494E-02    0.819E-03
RMM:   6    -0.955056552879E+02   -0.54116E-05   -0.20318E-05    42   0.241E-02
     35 T=   608. E= -.95098623E+02 F= -.95505655E+02 E0= -.95508034E+02  EK= 0.11007E+01 SP= -.90E+00 SK= 0.21E+00
 bond charge predicted
 prediction of wavefunctions
       N       E                     dE             d eps       ncg     rms          rms(c)
RMM:   1    -0.954449117568E+02    0.60738E-01   -0.18856E-01    64   0.303E+00    0.156E-01
RMM:   2    -0.954455016768E+02   -0.58992E-03   -0.89068E-03    65   0.627E-01    0.103E-01
RMM:   3    -0.954455254799E+02   -0.23803E-04   -0.18547E-03    68   0.233E-01    0.404E-02
RMM:   4    -0.954455664753E+02   -0.40995E-04   -0.31151E-04    66   0.923E-02    0.235E-02
RMM:   5    -0.954455839392E+02   -0.17464E-04   -0.65473E-05    57   0.443E-02    0.110E-02
RMM:   6    -0.954455965889E+02   -0.12650E-04   -0.13917E-05    40   0.207E-02    0.245E-03
RMM:   7    -0.954456015116E+02   -0.49227E-05   -0.34734E-06    39   0.103E-02
     36 T=   518. E= -.95094209E+02 F= -.95445602E+02 E0= -.95448176E+02  EK= 0.93651E+00 SP= -.80E+00 SK= 0.22E+00
 bond charge predicted
 prediction of wavefunctions
       N       E                     dE             d eps       ncg     rms          rms(c)
RMM:   1    -0.955038085153E+02   -0.58212E-01   -0.79090E-02    64   0.192E+00    0.102E-01
RMM:   2    -0.955042083210E+02   -0.39981E-03   -0.49362E-03    67   0.393E-01    0.712E-02
RMM:   3    -0.955042312153E+02   -0.22894E-04   -0.96790E-04    67   0.153E-01    0.276E-02
RMM:   4    -0.955042641925E+02   -0.32977E-04   -0.27270E-04    68   0.669E-02    0.167E-02
RMM:   5    -0.955042708978E+02   -0.67053E-05   -0.46581E-05    46   0.305E-02    0.835E-03
RMM:   6    -0.955042732217E+02   -0.23238E-05   -0.85082E-06    39   0.153E-02
     37 T=   491. E= -.95101520E+02 F= -.95504273E+02 E0= -.95506901E+02  EK= 0.88898E+00 SP= -.70E+00 SK= 0.22E+00
 bond charge predicted
 prediction of wavefunctions
       N       E                     dE             d eps       ncg     rms          rms(c)
RMM:   1    -0.955839148867E+02   -0.79644E-01   -0.44538E-02    64   0.139E+00    0.680E-02
RMM:   2    -0.955843344256E+02   -0.41954E-03   -0.42887E-03    65   0.334E-01    0.428E-02
RMM:   3    -0.955844248901E+02   -0.90465E-04   -0.93045E-04    69   0.137E-01    0.309E-02
RMM:   4    -0.955844461506E+02   -0.21260E-04   -0.22567E-04    65   0.650E-02    0.119E-02
RMM:   5    -0.955844529386E+02   -0.67880E-05   -0.36059E-05    47   0.297E-02    0.667E-03
RMM:   6    -0.955844588882E+02   -0.59496E-05   -0.74283E-06    39   0.134E-02
     38 T=   477. E= -.95110042E+02 F= -.95584459E+02 E0= -.95587081E+02  EK= 0.86263E+00 SP= -.60E+00 SK= 0.22E+00
 bond charge predicted
 prediction of wavefunctions
       N       E                     dE             d eps       ncg     rms          rms(c)
RMM:   1    -0.955478548864E+02    0.36598E-01   -0.59717E-02    64   0.162E+00    0.775E-02
RMM:   2    -0.955482038636E+02   -0.34898E-03   -0.37841E-03    64   0.391E-01    0.445E-02
RMM:   3    -0.955482789813E+02   -0.75118E-04   -0.86055E-04    68   0.148E-01    0.318E-02
RMM:   4    -0.955482824412E+02   -0.34599E-05   -0.13749E-04    63   0.647E-02    0.124E-02
RMM:   5    -0.955482889022E+02   -0.64610E-05   -0.47797E-05    52   0.343E-02    0.573E-03
RMM:   6    -0.955482925483E+02   -0.36462E-05   -0.84491E-06    39   0.151E-02
     39 T=   410. E= -.95104967E+02 F= -.95548293E+02 E0= -.95550925E+02  EK= 0.74118E+00 SP= -.51E+00 SK= 0.21E+00
 bond charge predicted
 prediction of wavefunctions
       N       E                     dE             d eps       ncg     rms          rms(c)
RMM:   1    -0.954418352640E+02    0.10645E+00   -0.16206E-01    64   0.247E+00    0.137E-01
RMM:   2    -0.954423570713E+02   -0.52181E-03   -0.84985E-03    64   0.637E-01    0.825E-02
RMM:   3    -0.954424207328E+02   -0.63661E-04   -0.16844E-03    67   0.236E-01    0.502E-02
RMM:   4    -0.954424222145E+02   -0.14817E-05   -0.25085E-04    64   0.964E-02    0.239E-02
RMM:   5    -0.954424304406E+02   -0.82261E-05   -0.88692E-05    61   0.531E-02    0.913E-03
RMM:   6    -0.954424362294E+02   -0.57888E-05   -0.18329E-05    43   0.232E-02
     40 T=   320. E= -.95092906E+02 F= -.95442436E+02 E0= -.95445116E+02  EK= 0.57833E+00 SP= -.41E+00 SK= 0.18E+00
 bond charge predicted
 prediction of wavefunctions
       N       E                     dE             d eps       ncg     rms          rms(c)
RMM:   1    -0.954342850332E+02    0.81454E-02   -0.12030E-01    64   0.231E+00    0.138E-01
RMM:   2    -0.954347551333E+02   -0.47010E-03   -0.76671E-03    64   0.559E-01    0.873E-02
RMM:   3    -0.954348230094E+02   -0.67876E-04   -0.16999E-03    66   0.222E-01    0.430E-02
RMM:   4    -0.954348436826E+02   -0.20673E-04   -0.29333E-04    67   0.915E-02    0.262E-02
RMM:   5    -0.954348510527E+02   -0.73701E-05   -0.66946E-05    60   0.465E-02    0.705E-03
RMM:   6    -0.954348535037E+02   -0.24509E-05   -0.14588E-05    40   0.204E-02
     41 T=   286. E= -.95095098E+02 F= -.95434854E+02 E0= -.95437577E+02  EK= 0.51756E+00 SP= -.33E+00 SK= 0.15E+00
 bond charge predicted
 prediction of wavefunctions
       N       E                     dE             d eps       ncg     rms          rms(c)
RMM:   1    -0.955192213301E+02   -0.84370E-01   -0.32085E-02    64   0.116E+00    0.744E-02
RMM:   2    -0.955193370927E+02   -0.11576E-03   -0.19272E-03    63   0.289E-01    0.498E-02
RMM:   3    -0.955193599470E+02   -0.22854E-04   -0.49462E-04    68   0.115E-01    0.191E-02
RMM:   4    -0.955193746173E+02   -0.14670E-04   -0.67115E-05    57   0.461E-02    0.997E-03
RMM:   5    -0.955193871560E+02   -0.12539E-04   -0.17259E-05    42   0.231E-02    0.413E-03
RMM:   6    -0.955193968090E+02   -0.96530E-05   -0.47758E-06    39   0.118E-02
     42 T=   303. E= -.95103656E+02 F= -.95519397E+02 E0= -.95522054E+02  EK= 0.54748E+00 SP= -.25E+00 SK= 0.12E+00
 bond charge predicted
 prediction of wavefunctions
       N       E                     dE             d eps       ncg     rms          rms(c)
RMM:   1    -0.955706963295E+02   -0.51309E-01   -0.65200E-02    64   0.164E+00    0.121E-01
RMM:   2    -0.955707440821E+02   -0.47753E-04   -0.36225E-03    64   0.403E-01    0.716E-02
RMM:   3    -0.955707519610E+02   -0.78790E-05   -0.98978E-04    66   0.169E-01    0.340E-02
RMM:   4    -0.955707639069E+02   -0.11946E-04   -0.16139E-04    65   0.724E-02    0.220E-02
RMM:   5    -0.955707781219E+02   -0.14215E-04   -0.45709E-05    50   0.352E-02    0.675E-03
RMM:   6    -0.955707817431E+02   -0.36212E-05   -0.12381E-05    40   0.177E-02
     43 T=   307. E= -.95103508E+02 F= -.95570782E+02 E0= -.95573206E+02  EK= 0.55547E+00 SP= -.18E+00 SK= 0.93E-01
 bond charge predicted
 prediction of wavefunctions
       N       E                     dE             d eps       ncg     rms          rms(c)
RMM:   1    -0.955628359893E+02    0.79421E-02   -0.10318E-01    64   0.198E+00    0.117E-01
RMM:   2    -0.955631519522E+02   -0.31596E-03   -0.58042E-03    64   0.501E-01    0.710E-02
RMM:   3    -0.955632080986E+02   -0.56146E-04   -0.13833E-03    67   0.197E-01    0.370E-02
RMM:   4    -0.955632264364E+02   -0.18338E-04   -0.24345E-04    67   0.834E-02    0.247E-02
RMM:   5    -0.955632389024E+02   -0.12466E-04   -0.60838E-05    59   0.418E-02    0.708E-03
RMM:   6    -0.955632431600E+02   -0.42576E-05   -0.15755E-05    42   0.205E-02
     44 T=   285. E= -.95099205E+02 F= -.95563243E+02 E0= -.95565444E+02  EK= 0.51562E+00 SP= -.12E+00 SK= 0.70E-01
 bond charge predicted
 prediction of wavefunctions
       N       E                     dE             d eps       ncg     rms          rms(c)
RMM:   1    -0.955495208857E+02    0.13718E-01   -0.85439E-02    64   0.184E+00    0.799E-02
RMM:   2    -0.955499822332E+02   -0.46135E-03   -0.50591E-03    64   0.462E-01    0.470E-02
RMM:   3    -0.955500945576E+02   -0.11232E-03   -0.12126E-03    71   0.173E-01    0.355E-02
RMM:   4    -0.955500969673E+02   -0.24096E-05   -0.14430E-04    63   0.676E-02    0.139E-02
RMM:   5    -0.955501079553E+02   -0.10988E-04   -0.54744E-05    54   0.374E-02    0.537E-03
RMM:   6    -0.955501148463E+02   -0.68911E-05   -0.12457E-05    41   0.182E-02
     45 T=   263. E= -.95096973E+02 F= -.95550115E+02 E0= -.95552215E+02  EK= 0.47661E+00 SP= -.70E-01 SK= 0.47E-01
 bond charge predicted
 prediction of wavefunctions
       N       E                     dE             d eps       ncg     rms          rms(c)
RMM:   1    -0.955693079331E+02   -0.19200E-01   -0.61801E-02    64   0.151E+00    0.727E-02
RMM:   2    -0.955696955839E+02   -0.38765E-03   -0.43857E-03    65   0.380E-01    0.448E-02
RMM:   3    -0.955697881334E+02   -0.92549E-04   -0.11394E-03    70   0.149E-01    0.292E-02
RMM:   4    -0.955697955348E+02   -0.74014E-05   -0.15038E-04    67   0.605E-02    0.126E-02
RMM:   5    -0.955698020827E+02   -0.65479E-05   -0.34297E-05    47   0.292E-02    0.439E-03
RMM:   6    -0.955698069060E+02   -0.48233E-05   -0.60258E-06    39   0.126E-02
     46 T=   262. E= -.95097619E+02 F= -.95569807E+02 E0= -.95571893E+02  EK= 0.47426E+00 SP= -.30E-01 SK= 0.28E-01
 bond charge predicted
 prediction of wavefunctions
       N       E                     dE             d eps       ncg     rms          rms(c)
RMM:   1    -0.956137421158E+02   -0.43940E-01   -0.63507E-02    64   0.150E+00    0.808E-02
RMM:   2    -0.956141213264E+02   -0.37921E-03   -0.45651E-03    65   0.383E-01    0.518E-02
RMM:   3    -0.956141726207E+02   -0.51294E-04   -0.96141E-04    68   0.146E-01    0.302E-02
RMM:   4    -0.956141847129E+02   -0.12092E-04   -0.22496E-04    66   0.668E-02    0.124E-02
RMM:   5    -0.956141877312E+02   -0.30183E-05   -0.36251E-05    46   0.281E-02    0.722E-03
RMM:   6    -0.956141892579E+02   -0.15267E-05   -0.67164E-06    39   0.134E-02
     47 T=   276. E= -.95100764E+02 F= -.95614189E+02 E0= -.95616341E+02  EK= 0.49899E+00 SP= 0.27E-03 SK= 0.14E-01
 bond charge predicted
 prediction of wavefunctions
       N       E                     dE             d eps       ncg     rms          rms(c)
RMM:   1    -0.956354460460E+02   -0.21258E-01   -0.65211E-02    64   0.158E+00    0.831E-02
RMM:   2    -0.956358159115E+02   -0.36987E-03   -0.44993E-03    65   0.405E-01    0.523E-02
RMM:   3    -0.956358734618E+02   -0.57550E-04   -0.90620E-04    69   0.153E-01    0.366E-02
RMM:   4    -0.956358713536E+02    0.21083E-05   -0.16933E-04    62   0.699E-02    0.957E-03
RMM:   5    -0.956358772791E+02   -0.59255E-05   -0.49889E-05    52   0.358E-02    0.756E-03
RMM:   6    -0.956358790214E+02   -0.17424E-05   -0.13242E-05    40   0.168E-02
     48 T=   280. E= -.95102699E+02 F= -.95635879E+02 E0= -.95638245E+02  EK= 0.50699E+00 SP= 0.21E-01 SK= 0.55E-02
 bond charge predicted
 prediction of wavefunctions
       N       E                     dE             d eps       ncg     rms          rms(c)
RMM:   1    -0.956109611756E+02    0.24916E-01   -0.94209E-02    64   0.187E+00    0.107E-01
RMM:   2    -0.956112502062E+02   -0.28903E-03   -0.53407E-03    64   0.493E-01    0.663E-02
RMM:   3    -0.956112732314E+02   -0.23025E-04   -0.11279E-03    65   0.191E-01    0.374E-02
RMM:   4    -0.956112829323E+02   -0.97010E-05   -0.20229E-04    66   0.781E-02    0.218E-02
RMM:   5    -0.956112866383E+02   -0.37059E-05   -0.59856E-05    54   0.414E-02    0.682E-03
RMM:   6    -0.956112891454E+02   -0.25072E-05   -0.17952E-05    42   0.203E-02
     49 T=   265. E= -.95098834E+02 F= -.95611289E+02 E0= -.95614148E+02  EK= 0.48020E+00 SP= 0.31E-01 SK= 0.78E-03
 bond charge predicted
 prediction of wavefunctions
       N       E                     dE             d eps       ncg     rms          rms(c)
RMM:   1    -0.955954265255E+02    0.15860E-01   -0.13146E-01    64   0.220E+00    0.152E-01
RMM:   2    -0.955956782177E+02   -0.25169E-03   -0.75556E-03    64   0.579E-01    0.940E-02
RMM:   3    -0.955957097719E+02   -0.31554E-04   -0.17946E-03    63   0.239E-01    0.437E-02
RMM:   4    -0.955957363083E+02   -0.26536E-04   -0.35615E-04    69   0.104E-01    0.297E-02
RMM:   5    -0.955957543367E+02   -0.18028E-04   -0.77291E-05    57   0.490E-02    0.804E-03
RMM:   6    -0.955957602865E+02   -0.59498E-05   -0.19023E-05    41   0.220E-02
     50 T=   258. E= -.95096874E+02 F= -.95595760E+02 E0= -.95599104E+02  EK= 0.46630E+00 SP= 0.32E-01 SK= 0.49E-03
Information: wavefunction orthogonal band   32  0.8901
 bond charge predicted
 prediction of wavefunctions
       N       E                     dE             d eps       ncg     rms          rms(c)
RMM:   1    -0.956171958319E+02   -0.21441E-01   -0.58218E-02    64   0.148E+00    0.101E-01
RMM:   2    -0.956174241998E+02   -0.22837E-03   -0.37287E-03    65   0.373E-01    0.649E-02
RMM:   3    -0.956174606062E+02   -0.36406E-04   -0.87682E-04    67   0.147E-01    0.289E-02
RMM:   4    -0.956174714303E+02   -0.10824E-04   -0.15443E-04    61   0.640E-02    0.121E-02
RMM:   5    -0.956174754484E+02   -0.40181E-05   -0.47755E-05    52   0.298E-02    0.534E-03
RMM:   6    -0.956174759174E+02   -0.46901E-06   -0.52686E-06    39   0.123E-02
     51 T=   270. E= -.95101020E+02 F= -.95617476E+02 E0= -.95621006E+02  EK= 0.48915E+00 SP= 0.22E-01 SK= 0.51E-02
 bond charge predicted
 prediction of wavefunctions
       N       E                     dE             d eps       ncg     rms          rms(c)
RMM:   1    -0.956204721966E+02   -0.29967E-02   -0.57104E-02    64   0.154E+00    0.984E-02
RMM:   2    -0.956206638997E+02   -0.19170E-03   -0.31990E-03    64   0.375E-01    0.634E-02
RMM:   3    -0.956207057300E+02   -0.41830E-04   -0.77424E-04    66   0.147E-01    0.268E-02
RMM:   4    -0.956207140073E+02   -0.82772E-05   -0.10819E-04    60   0.592E-02    0.142E-02
RMM:   5    -0.956207207566E+02   -0.67494E-05   -0.36103E-05    47   0.308E-02    0.488E-03
RMM:   6    -0.956207233938E+02   -0.26372E-05   -0.65284E-06    39   0.132E-02
     52 T=   278. E= -.95102129E+02 F= -.95620723E+02 E0= -.95624321E+02  EK= 0.50255E+00 SP= 0.24E-02 SK= 0.14E-01
 bond charge predicted
 prediction of wavefunctions
       N       E                     dE             d eps       ncg     rms          rms(c)
RMM:   1    -0.955862979283E+02    0.34423E-01   -0.87782E-02    64   0.187E+00    0.122E-01
RMM:   2    -0.955865038480E+02   -0.20592E-03   -0.49247E-03    64   0.477E-01    0.727E-02
RMM:   3    -0.955865476912E+02   -0.43843E-04   -0.10989E-03    69   0.182E-01    0.478E-02
RMM:   4    -0.955865505502E+02   -0.28590E-05   -0.19775E-04    65   0.783E-02    0.230E-02
RMM:   5    -0.955865546569E+02   -0.41067E-05   -0.51544E-05    50   0.388E-02    0.110E-02
RMM:   6    -0.955865571635E+02   -0.25066E-05   -0.93928E-06    40   0.170E-02
     53 T=   270. E= -.95098757E+02 F= -.95586557E+02 E0= -.95590225E+02  EK= 0.48837E+00 SP= -.27E-01 SK= 0.27E-01
 bond charge predicted
 prediction of wavefunctions
       N       E                     dE             d eps       ncg     rms          rms(c)
RMM:   1    -0.955620935867E+02    0.24461E-01   -0.82365E-02    64   0.180E+00    0.985E-02
RMM:   2    -0.955624063137E+02   -0.31273E-03   -0.44698E-03    64   0.456E-01    0.605E-02
RMM:   3    -0.955624717596E+02   -0.65446E-04   -0.99114E-04    70   0.171E-01    0.444E-02
RMM:   4    -0.955624719657E+02   -0.20611E-06   -0.15377E-04    63   0.724E-02    0.220E-02
RMM:   5    -0.955624800618E+02   -0.80961E-05   -0.54532E-05    53   0.396E-02    0.934E-03
RMM:   6    -0.955624839351E+02   -0.38734E-05   -0.10004E-05    40   0.166E-02
     54 T=   270. E= -.95096301E+02 F= -.95562484E+02 E0= -.95566268E+02  EK= 0.48821E+00 SP= -.67E-01 SK= 0.45E-01
 bond charge predicted
 prediction of wavefunctions
       N       E                     dE             d eps       ncg     rms          rms(c)
RMM:   1    -0.955846533138E+02   -0.22173E-01   -0.51730E-02    64   0.144E+00    0.718E-02
RMM:   2    -0.955848969690E+02   -0.24366E-03   -0.28680E-03    64   0.356E-01    0.449E-02
RMM:   3    -0.955849450275E+02   -0.48059E-04   -0.62507E-04    68   0.132E-01    0.337E-02
RMM:   4    -0.955849439605E+02    0.10670E-05   -0.10173E-04    64   0.550E-02    0.183E-02
RMM:   5    -0.955849453883E+02   -0.14278E-05   -0.30178E-05    46   0.298E-02    0.529E-03
RMM:   6    -0.955849461763E+02   -0.78795E-06   -0.56540E-06    39   0.129E-02
     55 T=   297. E= -.95097813E+02 F= -.95584946E+02 E0= -.95588877E+02  EK= 0.53725E+00 SP= -.12E+00 SK= 0.66E-01
 bond charge predicted
 prediction of wavefunctions
       N       E                     dE             d eps       ncg     rms          rms(c)
RMM:   1    -0.956267973869E+02   -0.41852E-01   -0.45403E-02    64   0.135E+00    0.639E-02
RMM:   2    -0.956270287824E+02   -0.23140E-03   -0.26930E-03    64   0.338E-01    0.408E-02
RMM:   3    -0.956270770177E+02   -0.48235E-04   -0.58561E-04    67   0.126E-01    0.319E-02
RMM:   4    -0.956270804158E+02   -0.33981E-05   -0.12306E-04    63   0.549E-02    0.185E-02
RMM:   5    -0.956270832427E+02   -0.28268E-05   -0.37335E-05    49   0.305E-02    0.443E-03
RMM:   6    -0.956270842813E+02   -0.10386E-05   -0.68743E-06    39   0.138E-02
     56 T=   338. E= -.95102986E+02 F= -.95627084E+02 E0= -.95631153E+02  EK= 0.61198E+00 SP= -.17E+00 SK= 0.87E-01
 bond charge predicted
 prediction of wavefunctions
       N       E                     dE             d eps       ncg     rms          rms(c)
RMM:   1    -0.956184716965E+02    0.86115E-02   -0.73939E-02    64   0.173E+00    0.771E-02
RMM:   2    -0.956188372362E+02   -0.36554E-03   -0.42104E-03    64   0.440E-01    0.483E-02
RMM:   3    -0.956189172329E+02   -0.79997E-04   -0.95361E-04    70   0.162E-01    0.373E-02
RMM:   4    -0.956189147524E+02    0.24805E-05   -0.14477E-04    66   0.656E-02    0.226E-02
RMM:   5    -0.956189177442E+02   -0.29918E-05   -0.54358E-05    56   0.380E-02    0.597E-03
RMM:   6    -0.956189189936E+02   -0.12494E-05   -0.10311E-05    41   0.174E-02
     57 T=   358. E= -.95105652E+02 F= -.95618919E+02 E0= -.95623090E+02  EK= 0.64842E+00 SP= -.24E+00 SK= 0.11E+00
 bond charge predicted
 prediction of wavefunctions
       N       E                     dE             d eps       ncg     rms          rms(c)
RMM:   1    -0.955454932247E+02    0.73425E-01   -0.14230E-01    64   0.235E+00    0.117E-01
RMM:   2    -0.955460697054E+02   -0.57648E-03   -0.76732E-03    64   0.618E-01    0.706E-02
RMM:   3    -0.955461698276E+02   -0.10012E-03   -0.15496E-03    68   0.222E-01    0.539E-02
RMM:   4    -0.955461596046E+02    0.10223E-04   -0.26405E-04    66   0.928E-02    0.356E-02
RMM:   5    -0.955461587643E+02    0.84035E-06   -0.89288E-05    61   0.487E-02    0.961E-03
RMM:   6    -0.955461631209E+02   -0.43567E-05   -0.17620E-05    41   0.228E-02
     58 T=   350. E= -.95099674E+02 F= -.95546163E+02 E0= -.95550395E+02  EK= 0.63368E+00 SP= -.31E+00 SK= 0.12E+00
 bond charge predicted
 prediction of wavefunctions
       N       E                     dE             d eps       ncg     rms          rms(c)
RMM:   1    -0.955093759431E+02    0.36783E-01   -0.16989E-01    64   0.258E+00    0.203E-01
RMM:   2    -0.955096206642E+02   -0.24472E-03   -0.98933E-03    64   0.696E-01    0.123E-01
RMM:   3    -0.955096285053E+02   -0.78412E-05   -0.22381E-03    70   0.265E-01    0.847E-02
RMM:   4    -0.955095896765E+02    0.38829E-04   -0.48518E-04    63   0.125E-01    0.383E-02
RMM:   5    -0.955096037346E+02   -0.14058E-04   -0.16028E-04    66   0.679E-02    0.234E-02
RMM:   6    -0.955096091781E+02   -0.54435E-05   -0.39572E-05    47   0.328E-02
     59 T=   363. E= -.95095008E+02 F= -.95509609E+02 E0= -.95513875E+02  EK= 0.65694E+00 SP= -.39E+00 SK= 0.15E+00
 bond charge predicted
 prediction of wavefunctions
       N       E                     dE             d eps       ncg     rms          rms(c)
RMM:   1    -0.955645978096E+02   -0.54994E-01   -0.79970E-02    64   0.172E+00    0.138E-01
RMM:   2    -0.955648894622E+02   -0.29165E-03   -0.57990E-03    64   0.462E-01    0.876E-02
RMM:   3    -0.955649603935E+02   -0.70931E-04   -0.15746E-03    70   0.186E-01    0.624E-02
RMM:   4    -0.955649516040E+02    0.87896E-05   -0.30664E-04    63   0.946E-02    0.214E-02
RMM:   5    -0.955649607313E+02   -0.91273E-05   -0.73783E-05    55   0.461E-02    0.137E-02
RMM:   6    -0.955649665080E+02   -0.57768E-05   -0.20184E-05    42   0.235E-02
     60 T=   425. E= -.95103668E+02 F= -.95564967E+02 E0= -.95569254E+02  EK= 0.76964E+00 SP= -.47E+00 SK= 0.16E+00
 bond charge predicted
 prediction of wavefunctions
       N       E                     dE             d eps       ncg     rms          rms(c)
RMM:   1    -0.955927026623E+02   -0.27742E-01   -0.65513E-02    64   0.165E+00    0.991E-02
RMM:   2    -0.955930718510E+02   -0.36919E-03   -0.47939E-03    65   0.407E-01    0.645E-02
RMM:   3    -0.955931658814E+02   -0.94030E-04   -0.12001E-03    66   0.163E-01    0.364E-02
RMM:   4    -0.955931904962E+02   -0.24615E-04   -0.32225E-04    66   0.785E-02    0.169E-02
RMM:   5    -0.955931905339E+02   -0.37700E-07   -0.47890E-05    54   0.364E-02    0.770E-03
RMM:   6    -0.955931902895E+02    0.24444E-06   -0.11700E-05    40   0.171E-02
     61 T=   482. E= -.95109994E+02 F= -.95593190E+02 E0= -.95597486E+02  EK= 0.87279E+00 SP= -.56E+00 SK= 0.17E+00
 bond charge predicted
 prediction of wavefunctions
       N       E                     dE             d eps       ncg     rms          rms(c)
RMM:   1    -0.955206489011E+02    0.72542E-01   -0.13876E-01    64   0.244E+00    0.149E-01
RMM:   2    -0.955210299403E+02   -0.38104E-03   -0.78876E-03    64   0.591E-01    0.909E-02
RMM:   3    -0.955211286960E+02   -0.98756E-04   -0.16937E-03    67   0.222E-01    0.618E-02
RMM:   4    -0.955211406839E+02   -0.11988E-04   -0.36509E-04    65   0.104E-01    0.250E-02
RMM:   5    -0.955211510698E+02   -0.10386E-04   -0.88045E-05    58   0.501E-02    0.126E-02
RMM:   6    -0.955211558901E+02   -0.48203E-05   -0.16236E-05    42   0.219E-02
     62 T=   494. E= -.95104956E+02 F= -.95521156E+02 E0= -.95525450E+02  EK= 0.89332E+00 SP= -.65E+00 SK= 0.17E+00
 bond charge predicted
 prediction of wavefunctions
       N       E                     dE             d eps       ncg     rms          rms(c)
RMM:   1    -0.954333210034E+02    0.87830E-01   -0.18266E-01    64   0.265E+00    0.138E-01
RMM:   2    -0.954339841566E+02   -0.66315E-03   -0.10122E-02    64   0.694E-01    0.749E-02
RMM:   3    -0.954341601606E+02   -0.17600E-03   -0.21875E-03    69   0.249E-01    0.542E-02
RMM:   4    -0.954341750178E+02   -0.14857E-04   -0.35038E-04    65   0.105E-01    0.241E-02
RMM:   5    -0.954341905300E+02   -0.15512E-04   -0.11781E-04    61   0.511E-02    0.127E-02
RMM:   6    -0.954341993398E+02   -0.88098E-05   -0.16640E-05    40   0.227E-02
     63 T=   497. E= -.95099209E+02 F= -.95434199E+02 E0= -.95438472E+02  EK= 0.89880E+00 SP= -.73E+00 SK= 0.17E+00
 bond charge predicted
 prediction of wavefunctions
       N       E                     dE             d eps       ncg     rms          rms(c)
RMM:   1    -0.954224520154E+02    0.11739E-01   -0.11542E-01    64   0.221E+00    0.996E-02
RMM:   2    -0.954230693133E+02   -0.61730E-03   -0.67814E-03    64   0.545E-01    0.634E-02
RMM:   3    -0.954231819747E+02   -0.11266E-03   -0.14429E-03    69   0.197E-01    0.422E-02
RMM:   4    -0.954231961472E+02   -0.14173E-04   -0.32998E-04    65   0.926E-02    0.134E-02
RMM:   5    -0.954232047677E+02   -0.86205E-05   -0.68968E-05    60   0.431E-02    0.116E-02
RMM:   6    -0.954232091176E+02   -0.43499E-05   -0.15751E-05    41   0.200E-02
     64 T=   540. E= -.95098951E+02 F= -.95423209E+02 E0= -.95427285E+02  EK= 0.97749E+00 SP= -.82E+00 SK= 0.17E+00
 bond charge predicted
 prediction of wavefunctions
       N       E                     dE             d eps       ncg     rms          rms(c)
RMM:   1    -0.954869970876E+02   -0.63792E-01   -0.10395E-01    64   0.198E+00    0.134E-01
RMM:   2    -0.954872839128E+02   -0.28683E-03   -0.90432E-03    66   0.502E-01    0.119E-01
RMM:   3    -0.954871048948E+02    0.17902E-03   -0.25756E-03    70   0.216E-01    0.104E-01
RMM:   4    -0.954868092558E+02    0.29564E-03   -0.47697E-04    63   0.108E-01    0.646E-02
RMM:   5    -0.954865436265E+02    0.26563E-03   -0.12434E-03    63   0.142E-01    0.379E-02
RMM:   6    -0.954865706962E+02   -0.27070E-04   -0.23614E-04    64   0.767E-02    0.183E-02
RMM:   7    -0.954866264626E+02   -0.55766E-04   -0.25582E-04    63   0.573E-02    0.184E-02
RMM:   8    -0.954866139893E+02    0.12473E-04   -0.30864E-05    46   0.267E-02    0.964E-03
RMM:   9    -0.954866717942E+02   -0.57805E-04   -0.59774E-05    49   0.263E-02    0.765E-03
RMM:  10    -0.954867227707E+02   -0.50977E-04   -0.10962E-05    40   0.133E-02    0.583E-03
RMM:  11    -0.954867461168E+02   -0.23346E-04   -0.75764E-06    39   0.992E-03    0.279E-03
RMM:  12    -0.954867912997E+02   -0.45183E-04   -0.99392E-06    40   0.902E-03    0.146E-03
RMM:  13    -0.954867990131E+02   -0.77134E-05   -0.21840E-06    27   0.499E-03
     65 T=   627. E= -.95104034E+02 F= -.95486799E+02 E0= -.95488823E+02  EK= 0.11349E+01 SP= -.90E+00 SK= 0.15E+00
 bond charge predicted
 prediction of wavefunctions
       N       E                     dE             d eps       ncg     rms          rms(c)
RMM:   1    -0.955428436711E+02   -0.56052E-01   -0.11551E-01    64   0.205E+00    0.421E-01
RMM:   2    -0.955377358994E+02    0.51078E-02   -0.23185E-02    64   0.708E-01    0.203E-01
RMM:   3    -0.955373178736E+02    0.41803E-03   -0.73784E-03    70   0.356E-01    0.125E-01
RMM:   4    -0.955369319678E+02    0.38591E-03   -0.15021E-03    64   0.197E-01    0.386E-02
RMM:   5    -0.955368514626E+02    0.80505E-04   -0.43107E-04    68   0.978E-02    0.185E-02
RMM:   6    -0.955369541807E+02   -0.10272E-03   -0.13556E-04    66   0.498E-02    0.130E-02
RMM:   7    -0.955370375067E+02   -0.83326E-04   -0.28369E-05    45   0.273E-02    0.547E-03
RMM:   8    -0.955371798234E+02   -0.14232E-03   -0.22665E-05    43   0.180E-02    0.316E-03
RMM:   9    -0.955372661497E+02   -0.86326E-04   -0.15499E-05    42   0.126E-02    0.208E-03
RMM:  10    -0.955373349833E+02   -0.68834E-04   -0.12138E-05    41   0.102E-02    0.119E-03
RMM:  11    -0.955373648967E+02   -0.29913E-04   -0.56087E-06    34   0.728E-03    0.538E-04
RMM:  12    -0.955373739810E+02   -0.90843E-05   -0.24424E-06    25   0.503E-03
     66 T=   709. E= -.95114130E+02 F= -.95537374E+02 E0= -.95539324E+02  EK= 0.12825E+01 SP= -.98E+00 SK= 0.12E+00
 bond charge predicted
 prediction of wavefunctions
       N       E                     dE             d eps       ncg     rms          rms(c)
RMM:   1    -0.954581675373E+02    0.79197E-01   -0.13513E-01    64   0.243E+00    0.190E-01
RMM:   2    -0.954581027800E+02    0.64757E-04   -0.10408E-02    64   0.607E-01    0.103E-01
RMM:   3    -0.954581663786E+02   -0.63599E-04   -0.29960E-03    69   0.252E-01    0.657E-02
RMM:   4    -0.954580971068E+02    0.69272E-04   -0.58567E-04    65   0.126E-01    0.249E-02
RMM:   5    -0.954580660329E+02    0.31074E-04   -0.16233E-04    66   0.646E-02    0.127E-02
RMM:   6    -0.954580729635E+02   -0.69306E-05   -0.49893E-05    54   0.316E-02
     67 T=   720. E= -.95115652E+02 F= -.95458073E+02 E0= -.95460008E+02  EK= 0.13036E+01 SP= -.11E+01 SK= 0.90E-01
 bond charge predicted
 prediction of wavefunctions
       N       E                     dE             d eps       ncg     rms          rms(c)
RMM:   1    -0.952774528502E+02    0.18061E+00   -0.27255E-01    64   0.324E+00    0.173E-01
RMM:   2    -0.952784283561E+02   -0.97551E-03   -0.14862E-02    64   0.830E-01    0.102E-01
RMM:   3    -0.952786466673E+02   -0.21831E-03   -0.32089E-03    68   0.308E-01    0.582E-02
RMM:   4    -0.952787194808E+02   -0.72814E-04   -0.54878E-04    69   0.124E-01    0.318E-02
RMM:   5    -0.952787912550E+02   -0.71774E-04   -0.13281E-04    61   0.577E-02    0.922E-03
RMM:   6    -0.952788245607E+02   -0.33306E-04   -0.40884E-05    49   0.295E-02    0.689E-03
RMM:   7    -0.952788601398E+02   -0.35579E-04   -0.90931E-06    39   0.153E-02    0.334E-03
RMM:   8    -0.952788991260E+02   -0.38986E-04   -0.58853E-06    40   0.105E-02    0.305E-03
RMM:   9    -0.952789074243E+02   -0.82983E-05   -0.21393E-06    37   0.613E-03
     68 T=   675. E= -.95101673E+02 F= -.95278907E+02 E0= -.95280841E+02  EK= 0.12218E+01 SP= -.11E+01 SK= 0.65E-01
 bond charge predicted
 prediction of wavefunctions
       N       E                     dE             d eps       ncg     rms          rms(c)
RMM:   1    -0.952062562082E+02    0.72643E-01   -0.28402E-01    64   0.355E+00    0.224E-01
RMM:   2    -0.952068528493E+02   -0.59664E-03   -0.16077E-02    65   0.863E-01    0.138E-01
RMM:   3    -0.952069773848E+02   -0.12454E-03   -0.44427E-03    66   0.356E-01    0.595E-02
RMM:   4    -0.952070462403E+02   -0.68855E-04   -0.78267E-04    69   0.148E-01    0.431E-02
RMM:   5    -0.952071427876E+02   -0.96547E-04   -0.19797E-04    64   0.713E-02    0.152E-02
RMM:   6    -0.952071608203E+02   -0.18033E-04   -0.53962E-05    53   0.382E-02    0.782E-03
RMM:   7    -0.952072121929E+02   -0.51373E-04   -0.22481E-05    44   0.219E-02    0.483E-03
RMM:   8    -0.952072299766E+02   -0.17784E-04   -0.52696E-06    39   0.118E-02    0.211E-03
RMM:   9    -0.952072829324E+02   -0.52956E-04   -0.79405E-06    41   0.104E-02    0.328E-03
RMM:  10    -0.952072899963E+02   -0.70639E-05   -0.22827E-06    35   0.583E-03
     69 T=   674. E= -.95099043E+02 F= -.95207290E+02 E0= -.95209223E+02  EK= 0.12198E+01 SP= -.12E+01 SK= 0.48E-01
 bond charge predicted
 prediction of wavefunctions
       N       E                     dE             d eps       ncg     rms          rms(c)
RMM:   1    -0.952663173513E+02   -0.59034E-01   -0.12068E-01    64   0.231E+00    0.135E-01
RMM:   2    -0.952668750774E+02   -0.55773E-03   -0.78788E-03    66   0.534E-01    0.924E-02
RMM:   3    -0.952669423868E+02   -0.67309E-04   -0.18348E-03    66   0.211E-01    0.268E-02
RMM:   4    -0.952669826557E+02   -0.40269E-04   -0.35845E-04    69   0.884E-02    0.189E-02
RMM:   5    -0.952669954972E+02   -0.12842E-04   -0.75967E-05    57   0.421E-02    0.720E-03
RMM:   6    -0.952670006700E+02   -0.51728E-05   -0.19351E-05    41   0.209E-02
     70 T=   731. E= -.95114861E+02 F= -.95267001E+02 E0= -.95268934E+02  EK= 0.13228E+01 SP= -.12E+01 SK= 0.30E-01
Information: wavefunction orthogonal band   31  0.8655
Information: wavefunction orthogonal band   32  0.8852
 bond charge predicted
 prediction of wavefunctions
       N       E                     dE             d eps       ncg     rms          rms(c)
RMM:   1    -0.952480352460E+02    0.18960E-01   -0.15172E-01    64   0.268E+00    0.150E-01
RMM:   2    -0.952485714504E+02   -0.53620E-03   -0.88230E-03    64   0.624E-01    0.973E-02
RMM:   3    -0.952486427875E+02   -0.71337E-04   -0.21424E-03    67   0.250E-01    0.437E-02
RMM:   4    -0.952486768443E+02   -0.34057E-04   -0.39633E-04    68   0.102E-01    0.296E-02
RMM:   5    -0.952486968172E+02   -0.19973E-04   -0.96688E-05    60   0.496E-02    0.933E-03
RMM:   6    -0.952487005386E+02   -0.37214E-05   -0.22575E-05    44   0.242E-02
     71 T=   745. E= -.95118420E+02 F= -.95248701E+02 E0= -.95250634E+02  EK= 0.13480E+01 SP= -.12E+01 SK= 0.14E-01
 bond charge predicted
 prediction of wavefunctions
       N       E                     dE             d eps       ncg     rms          rms(c)
RMM:   1    -0.951066905159E+02    0.14201E+00   -0.22851E-01    64   0.313E+00    0.155E-01
RMM:   2    -0.951075540194E+02   -0.86350E-03   -0.12594E-02    64   0.771E-01    0.962E-02
RMM:   3    -0.951076538865E+02   -0.99867E-04   -0.24856E-03    66   0.283E-01    0.524E-02
RMM:   4    -0.951076818150E+02   -0.27929E-04   -0.45281E-04    67   0.115E-01    0.304E-02
RMM:   5    -0.951076930034E+02   -0.11188E-04   -0.10654E-04    60   0.549E-02    0.902E-03
RMM:   6    -0.951076978189E+02   -0.48155E-05   -0.27875E-05    46   0.264E-02
     72 T=   689. E= -.95106663E+02 F= -.95107698E+02 E0= -.95109633E+02  EK= 0.12475E+01 SP= -.13E+01 SK= 0.45E-02
 bond charge predicted
 prediction of wavefunctions
       N       E                     dE             d eps       ncg     rms          rms(c)
RMM:   1    -0.950041229452E+02    0.10357E+00   -0.24030E-01    64   0.319E+00    0.157E-01
RMM:   2    -0.950052961643E+02   -0.11732E-02   -0.14018E-02    64   0.793E-01    0.957E-02
RMM:   3    -0.950055776203E+02   -0.28146E-03   -0.32625E-03    71   0.294E-01    0.599E-02
RMM:   4    -0.950055835144E+02   -0.58941E-05   -0.43330E-04    63   0.119E-01    0.169E-02
RMM:   5    -0.950056017901E+02   -0.18276E-04   -0.16469E-04    66   0.599E-02    0.105E-02
RMM:   6    -0.950056059028E+02   -0.41127E-05   -0.19666E-05    43   0.236E-02
     73 T=   644. E= -.95099990E+02 F= -.95005606E+02 E0= -.95007542E+02  EK= 0.11661E+01 SP= -.13E+01 SK= 0.10E-02
 bond charge predicted
 prediction of wavefunctions
       N       E                     dE             d eps       ncg     rms          rms(c)
RMM:   1    -0.950397079652E+02   -0.34106E-01   -0.11262E-01    64   0.229E+00    0.100E-01
RMM:   2    -0.950404288469E+02   -0.72088E-03   -0.78139E-03    64   0.544E-01    0.671E-02
RMM:   3    -0.950405758557E+02   -0.14701E-03   -0.18794E-03    70   0.211E-01    0.521E-02
RMM:   4    -0.950405625208E+02    0.13335E-04   -0.40027E-04    64   0.973E-02    0.188E-02
RMM:   5    -0.950405749584E+02   -0.12438E-04   -0.10529E-04    65   0.497E-02    0.134E-02
RMM:   6    -0.950405754534E+02   -0.49499E-06   -0.34148E-05    46   0.250E-02
     74 T=   663. E= -.95105380E+02 F= -.95040575E+02 E0= -.95042511E+02  EK= 0.12001E+01 SP= -.13E+01 SK= 0.18E-07
 bond charge predicted
 prediction of wavefunctions
       N       E                     dE             d eps       ncg     rms          rms(c)
RMM:   1    -0.951398855388E+02   -0.99311E-01   -0.11349E-01    64   0.227E+00    0.114E-01
RMM:   2    -0.951404434053E+02   -0.55787E-03   -0.69444E-03    64   0.500E-01    0.798E-02
RMM:   3    -0.951404766442E+02   -0.33239E-04   -0.13259E-03    68   0.190E-01    0.450E-02
RMM:   4    -0.951404858650E+02   -0.92207E-05   -0.26772E-04    63   0.845E-02    0.169E-02
RMM:   5    -0.951404961887E+02   -0.10324E-04   -0.71196E-05    56   0.410E-02    0.946E-03
RMM:   6    -0.951405017609E+02   -0.55722E-05   -0.14387E-05    41   0.190E-02
     75 T=   710. E= -.95114269E+02 F= -.95140502E+02 E0= -.95142437E+02  EK= 0.12849E+01 SP= -.13E+01 SK= 0.18E-02
 bond charge predicted
 prediction of wavefunctions
       N       E                     dE             d eps       ncg     rms          rms(c)
RMM:   1    -0.951741570250E+02   -0.33661E-01   -0.14849E-01    64   0.255E+00    0.122E-01
RMM:   2    -0.951749108090E+02   -0.75378E-03   -0.85798E-03    65   0.582E-01    0.842E-02
RMM:   3    -0.951749696898E+02   -0.58881E-04   -0.14374E-03    68   0.213E-01    0.498E-02
RMM:   4    -0.951749736540E+02   -0.39642E-05   -0.37596E-04    64   0.102E-01    0.125E-02
RMM:   5    -0.951749836204E+02   -0.99664E-05   -0.11045E-04    62   0.495E-02    0.111E-02
RMM:   6    -0.951749860837E+02   -0.24633E-05   -0.19536E-05    42   0.211E-02
     76 T=   716. E= -.95117728E+02 F= -.95174986E+02 E0= -.95176922E+02  EK= 0.12951E+01 SP= -.12E+01 SK= 0.85E-02
 bond charge predicted
 prediction of wavefunctions
       N       E                     dE             d eps       ncg     rms          rms(c)
RMM:   1    -0.950973408075E+02    0.77643E-01   -0.20908E-01    64   0.292E+00    0.151E-01
RMM:   2    -0.950982142556E+02   -0.87345E-03   -0.11739E-02    64   0.727E-01    0.951E-02
RMM:   3    -0.950983454182E+02   -0.13116E-03   -0.22929E-03    68   0.269E-01    0.536E-02
RMM:   4    -0.950983521335E+02   -0.67152E-05   -0.37724E-04    64   0.111E-01    0.200E-02
RMM:   5    -0.950983692011E+02   -0.17068E-04   -0.14776E-04    65   0.602E-02    0.114E-02
RMM:   6    -0.950983733027E+02   -0.41016E-05   -0.25679E-05    45   0.255E-02
     77 T=   660. E= -.95108426E+02 F= -.95098373E+02 E0= -.95100310E+02  EK= 0.11937E+01 SP= -.12E+01 SK= 0.18E-01
 bond charge predicted
 prediction of wavefunctions
       N       E                     dE             d eps       ncg     rms          rms(c)
[...]
RMM:   1    -0.953217342359E+02    0.91599E-01   -0.23375E-01    64   0.312E+00    0.134E-01
RMM:   2    -0.953228100117E+02   -0.10758E-02   -0.12655E-02    64   0.774E-01    0.888E-02
RMM:   3    -0.953230263772E+02   -0.21637E-03   -0.25023E-03    66   0.279E-01    0.738E-02
RMM:   4    -0.953230343567E+02   -0.79795E-05   -0.53982E-04    69   0.122E-01    0.467E-02
RMM:   5    -0.953230469778E+02   -0.12621E-04   -0.16983E-04    63   0.692E-02    0.118E-02
RMM:   6    -0.953230519431E+02   -0.49653E-05   -0.30081E-05    43   0.303E-02
    260 T=   590. E= -.95104680E+02 F= -.95323052E+02 E0= -.95327235E+02  EK= 0.10674E+01 SP= -.85E+00 SK= 0.48E-02
 bond charge predicted
 prediction of wavefunctions
       N       E                     dE             d eps       ncg     rms          rms(c)
RMM:   1    -0.953036112992E+02    0.19436E-01   -0.10462E-01    64   0.203E+00    0.847E-02
RMM:   2    -0.953042330323E+02   -0.62173E-03   -0.67903E-03    64   0.502E-01    0.529E-02
RMM:   3    -0.953043783017E+02   -0.14527E-03   -0.16016E-03    71   0.184E-01    0.358E-02
RMM:   4    -0.953043867008E+02   -0.83991E-05   -0.19785E-04    62   0.730E-02    0.172E-02
RMM:   5    -0.953043933251E+02   -0.66243E-05   -0.67488E-05    56   0.389E-02    0.862E-03
RMM:   6    -0.953043948317E+02   -0.15066E-05   -0.12972E-05    42   0.181E-02
    261 T=   587. E= -.95105705E+02 F= -.95304395E+02 E0= -.95308654E+02  EK= 0.10627E+01 SP= -.87E+00 SK= 0.26E-02
 bond charge predicted
 prediction of wavefunctions
       N       E                     dE             d eps       ncg     rms          rms(c)
RMM:   1    -0.953402019195E+02   -0.35809E-01   -0.68309E-02    64   0.164E+00    0.777E-02
RMM:   2    -0.953406018351E+02   -0.39992E-03   -0.47494E-03    64   0.409E-01    0.481E-02
RMM:   3    -0.953407242221E+02   -0.12239E-03   -0.14042E-03    72   0.161E-01    0.249E-02
RMM:   4    -0.953407449464E+02   -0.20724E-04   -0.19051E-04    66   0.620E-02    0.133E-02
RMM:   5    -0.953407538883E+02   -0.89420E-05   -0.28556E-05    44   0.264E-02    0.364E-03
RMM:   6    -0.953407589865E+02   -0.50981E-05   -0.60946E-06    40   0.127E-02
    262 T=   609. E= -.95112619E+02 F= -.95340759E+02 E0= -.95345034E+02  EK= 0.11023E+01 SP= -.87E+00 SK= 0.80E-03
 bond charge predicted
 prediction of wavefunctions
       N       E                     dE             d eps       ncg     rms          rms(c)
RMM:   1    -0.953299912365E+02    0.10763E-01   -0.10319E-01    64   0.209E+00    0.125E-01
RMM:   2    -0.953302048818E+02   -0.21365E-03   -0.78408E-03    64   0.519E-01    0.129E-01
RMM:   3    -0.953302226997E+02   -0.17818E-04   -0.21222E-03    70   0.216E-01    0.131E-01
RMM:   4    -0.953302094802E+02    0.13220E-04   -0.34864E-04    67   0.894E-02    0.121E-01
RMM:   5    -0.953302831935E+02   -0.73713E-04   -0.25923E-03    64   0.224E-01    0.168E-01
RMM:   6    -0.953301967326E+02    0.86461E-04   -0.24763E-03    64   0.213E-01    0.247E-01
RMM:   7    -0.953294133465E+02    0.78339E-03   -0.88335E-04    63   0.134E-01    0.181E-01
RMM:   8    -0.953289592916E+02    0.45405E-03   -0.31301E-03    75   0.212E-01    0.352E-02
RMM:   9    -0.953290153757E+02   -0.56084E-04   -0.17530E-04    62   0.772E-02    0.526E-02
RMM:  10    -0.953290338849E+02   -0.18509E-04   -0.51174E-05    53   0.373E-02    0.351E-02
RMM:  11    -0.953290790258E+02   -0.45141E-04   -0.45121E-04    77   0.820E-02    0.281E-02
RMM:  12    -0.953290767616E+02    0.22642E-05   -0.36736E-05    50   0.302E-02
    263 T=   604. E= -.95114538E+02 F= -.95329077E+02 E0= -.95331084E+02  EK= 0.10926E+01 SP= -.88E+00 SK= 0.29E-05
 bond charge predicted
 prediction of wavefunctions
       N       E                     dE             d eps       ncg     rms          rms(c)
RMM:   1    -0.952398136035E+02    0.89265E-01   -0.20545E-01    64   0.283E+00    0.443E-01
RMM:   2    -0.952346265328E+02    0.51871E-02   -0.28533E-02    64   0.919E-01    0.216E-01
RMM:   3    -0.952344115579E+02    0.21497E-03   -0.90875E-03    69   0.418E-01    0.141E-01
RMM:   4    -0.952340985021E+02    0.31306E-03   -0.24382E-03    64   0.252E-01    0.585E-02
RMM:   5    -0.952339022563E+02    0.19625E-03   -0.45548E-04    63   0.123E-01    0.212E-02
RMM:   6    -0.952339604687E+02   -0.58212E-04   -0.32449E-04    70   0.724E-02    0.202E-02
RMM:   7    -0.952340130038E+02   -0.52535E-04   -0.63066E-05    54   0.419E-02    0.407E-03
RMM:   8    -0.952340570533E+02   -0.44050E-04   -0.15490E-05    42   0.191E-02    0.279E-03
RMM:   9    -0.952341231957E+02   -0.66142E-04   -0.13122E-05    41   0.131E-02    0.177E-03
RMM:  10    -0.952341437570E+02   -0.20561E-04   -0.43587E-06    38   0.778E-03    0.109E-03
RMM:  11    -0.952341696532E+02   -0.25896E-04   -0.55517E-06    37   0.739E-03    0.748E-04
RMM:  12    -0.952341766389E+02   -0.69857E-05   -0.22138E-06    28   0.488E-03
    264 T=   556. E= -.95104517E+02 F= -.95234177E+02 E0= -.95236147E+02  EK= 0.10057E+01 SP= -.88E+00 SK= 0.33E-03
 bond charge predicted
 prediction of wavefunctions
       N       E                     dE             d eps       ncg     rms          rms(c)
RMM:   1    -0.952009423716E+02    0.33227E-01   -0.35365E-01    64   0.374E+00    0.352E-01
RMM:   2    -0.951982767107E+02    0.26657E-02   -0.25764E-02    64   0.102E+00    0.235E-01
RMM:   3    -0.951976460549E+02    0.63066E-03   -0.14406E-02    65   0.530E-01    0.152E-01
RMM:   4    -0.951976071214E+02    0.38934E-04   -0.17602E-03    64   0.247E-01    0.963E-02
RMM:   5    -0.951974722206E+02    0.13490E-03   -0.11498E-03    64   0.164E-01    0.488E-02
RMM:   6    -0.951974635193E+02    0.87013E-05   -0.75785E-04    70   0.111E-01    0.210E-02
RMM:   7    -0.951974983043E+02   -0.34785E-04   -0.10645E-04    65   0.521E-02    0.149E-02
RMM:   8    -0.951975121691E+02   -0.13865E-04   -0.21229E-05    42   0.232E-02    0.801E-03
RMM:   9    -0.951975420921E+02   -0.29923E-04   -0.13394E-05    41   0.166E-02    0.169E-03
RMM:  10    -0.951975571468E+02   -0.15055E-04   -0.45921E-06    39   0.944E-03    0.216E-03
RMM:  11    -0.951975770585E+02   -0.19912E-04   -0.35644E-06    36   0.644E-03    0.929E-04
RMM:  12    -0.951975875541E+02   -0.10496E-04   -0.26072E-06    27   0.514E-03    0.499E-04
RMM:  13    -0.951975942145E+02   -0.66604E-05   -0.20813E-06    30   0.476E-03
    265 T=   536. E= -.95098486E+02 F= -.95197594E+02 E0= -.95199555E+02  EK= 0.96997E+00 SP= -.87E+00 SK= 0.73E-03
 bond charge predicted
 prediction of wavefunctions
       N       E                     dE             d eps       ncg     rms          rms(c)
RMM:   1    -0.952993367133E+02   -0.10175E+00   -0.12080E-01    64   0.228E+00    0.123E-01
RMM:   2    -0.952998674884E+02   -0.53078E-03   -0.77872E-03    64   0.558E-01    0.776E-02
RMM:   3    -0.953000413160E+02   -0.17383E-03   -0.23076E-03    71   0.227E-01    0.395E-02
RMM:   4    -0.953000680560E+02   -0.26740E-04   -0.33110E-04    66   0.904E-02    0.245E-02
RMM:   5    -0.953000945967E+02   -0.26541E-04   -0.96072E-05    63   0.507E-02    0.819E-03
RMM:   6    -0.953001008597E+02   -0.62630E-05   -0.20666E-05    42   0.238E-02
    266 T=   582. E= -.95110084E+02 F= -.95300101E+02 E0= -.95302068E+02  EK= 0.10529E+01 SP= -.86E+00 SK= 0.16E-02
 bond charge predicted
 prediction of wavefunctions
       N       E                     dE             d eps       ncg     rms          rms(c)
RMM:   1    -0.953927795878E+02   -0.92685E-01   -0.14607E-01    64   0.247E+00    0.143E-01
RMM:   2    -0.953934506272E+02   -0.67104E-03   -0.95475E-03    64   0.595E-01    0.909E-02
RMM:   3    -0.953936312133E+02   -0.18059E-03   -0.25760E-03    68   0.244E-01    0.405E-02
RMM:   4    -0.953936741482E+02   -0.42935E-04   -0.51267E-04    69   0.105E-01    0.256E-02
RMM:   5    -0.953936927881E+02   -0.18640E-04   -0.13405E-04    60   0.511E-02    0.851E-03
RMM:   6    -0.953936962368E+02   -0.34486E-05   -0.19746E-05    43   0.234E-02
    267 T=   624. E= -.95113956E+02 F= -.95393696E+02 E0= -.95395682E+02  EK= 0.11287E+01 SP= -.85E+00 SK= 0.43E-02
 bond charge predicted
 prediction of wavefunctions
       N       E                     dE             d eps       ncg     rms          rms(c)
RMM:   1    -0.954048256380E+02   -0.11133E-01   -0.22968E-01    64   0.304E+00    0.183E-01
RMM:   2    -0.954055695202E+02   -0.74388E-03   -0.12981E-02    64   0.749E-01    0.116E-01
RMM:   3    -0.954056650091E+02   -0.95489E-04   -0.29591E-03    67   0.290E-01    0.534E-02
RMM:   4    -0.954056999707E+02   -0.34962E-04   -0.52660E-04    69   0.118E-01    0.346E-02
RMM:   5    -0.954057115291E+02   -0.11558E-04   -0.11426E-04    61   0.548E-02    0.947E-03
RMM:   6    -0.954057150888E+02   -0.35596E-05   -0.28365E-05    45   0.270E-02
    268 T=   621. E= -.95109625E+02 F= -.95405715E+02 E0= -.95407721E+02  EK= 0.11234E+01 SP= -.84E+00 SK= 0.90E-02
 bond charge predicted
 prediction of wavefunctions
       N       E                     dE             d eps       ncg     rms          rms(c)
RMM:   1    -0.953877010592E+02    0.18010E-01   -0.18707E-01    64   0.273E+00    0.123E-01
RMM:   2    -0.953886127118E+02   -0.91165E-03   -0.10665E-02    64   0.710E-01    0.759E-02
RMM:   3    -0.953887976485E+02   -0.18494E-03   -0.21576E-03    68   0.256E-01    0.444E-02
RMM:   4    -0.953888381580E+02   -0.40510E-04   -0.44616E-04    68   0.107E-01    0.196E-02
RMM:   5    -0.953888556970E+02   -0.17539E-04   -0.81433E-05    60   0.482E-02    0.800E-03
RMM:   6    -0.953888646511E+02   -0.89541E-05   -0.13689E-05    40   0.207E-02
    269 T=   598. E= -.95105692E+02 F= -.95388865E+02 E0= -.95390881E+02  EK= 0.10823E+01 SP= -.81E+00 SK= 0.14E-01
 bond charge predicted
 prediction of wavefunctions
       N       E                     dE             d eps       ncg     rms          rms(c)
RMM:   1    -0.954004180276E+02   -0.11562E-01   -0.15754E-01    64   0.258E+00    0.134E-01
RMM:   2    -0.954011471032E+02   -0.72908E-03   -0.90381E-03    64   0.607E-01    0.884E-02
RMM:   3    -0.954013025886E+02   -0.15549E-03   -0.21530E-03    69   0.227E-01    0.376E-02
RMM:   4    -0.954013322010E+02   -0.29612E-04   -0.36805E-04    67   0.969E-02    0.130E-02
RMM:   5    -0.954013433159E+02   -0.11115E-04   -0.90728E-05    56   0.434E-02    0.613E-03
RMM:   6    -0.954013478261E+02   -0.45101E-05   -0.14710E-05    41   0.186E-02
    270 T=   588. E= -.95104045E+02 F= -.95401348E+02 E0= -.95403375E+02  EK= 0.10635E+01 SP= -.79E+00 SK= 0.20E-01
 bond charge predicted
 prediction of wavefunctions
       N       E                     dE             d eps       ncg     rms          rms(c)
RMM:   1    -0.954602092746E+02   -0.58866E-01   -0.11588E-01    64   0.209E+00    0.115E-01
RMM:   2    -0.954609872762E+02   -0.77800E-03   -0.93187E-03    68   0.507E-01    0.795E-02
RMM:   3    -0.954611544568E+02   -0.16718E-03   -0.22147E-03    69   0.201E-01    0.361E-02
RMM:   4    -0.954611892617E+02   -0.34805E-04   -0.43717E-04    70   0.875E-02    0.138E-02
RMM:   5    -0.954611930994E+02   -0.38377E-05   -0.54346E-05    50   0.348E-02    0.559E-03
RMM:   6    -0.954611943718E+02   -0.12724E-05   -0.91192E-06    40   0.155E-02
    271 T=   597. E= -.95108347E+02 F= -.95461194E+02 E0= -.95463243E+02  EK= 0.10808E+01 SP= -.75E+00 SK= 0.26E-01
 bond charge predicted
 prediction of wavefunctions
       N       E                     dE             d eps       ncg     rms          rms(c)
RMM:   1    -0.954992749619E+02   -0.38082E-01   -0.10536E-01    64   0.194E+00    0.940E-02
RMM:   2    -0.955004368481E+02   -0.11619E-02   -0.12173E-02    69   0.495E-01    0.622E-02
RMM:   3    -0.955006749535E+02   -0.23811E-03   -0.25844E-03    69   0.208E-01    0.464E-02
RMM:   4    -0.955007295124E+02   -0.54559E-04   -0.73223E-04    69   0.990E-02    0.205E-02
RMM:   5    -0.955007360566E+02   -0.65442E-05   -0.72365E-05    53   0.395E-02    0.883E-03
RMM:   6    -0.955007382601E+02   -0.22035E-05   -0.11834E-05    39   0.182E-02
    272 T=   591. E= -.95114493E+02 F= -.95500738E+02 E0= -.95502825E+02  EK= 0.10695E+01 SP= -.72E+00 SK= 0.34E-01
Information: wavefunction orthogonal band   32  0.8923
 bond charge predicted
 prediction of wavefunctions
       N       E                     dE             d eps       ncg     rms          rms(c)
RMM:   1    -0.954275530388E+02    0.73183E-01   -0.11082E-01    64   0.218E+00    0.101E-01
RMM:   2    -0.954283367964E+02   -0.78376E-03   -0.82054E-03    66   0.519E-01    0.661E-02
RMM:   3    -0.954285218405E+02   -0.18504E-03   -0.20158E-03    72   0.206E-01    0.487E-02
RMM:   4    -0.954285301250E+02   -0.82846E-05   -0.31894E-04    65   0.900E-02    0.147E-02
RMM:   5    -0.954285398002E+02   -0.96752E-05   -0.79680E-05    53   0.442E-02    0.762E-03
RMM:   6    -0.954285434785E+02   -0.36783E-05   -0.18858E-05    41   0.208E-02
    273 T=   527. E= -.95109917E+02 F= -.95428543E+02 E0= -.95430677E+02  EK= 0.95458E+00 SP= -.68E+00 SK= 0.41E-01
 bond charge predicted
 prediction of wavefunctions
       N       E                     dE             d eps       ncg     rms          rms(c)
RMM:   1    -0.953035487550E+02    0.12499E+00   -0.20362E-01    64   0.270E+00    0.173E-01
RMM:   2    -0.953040545615E+02   -0.50581E-03   -0.11065E-02    64   0.711E-01    0.105E-01
RMM:   3    -0.953041031444E+02   -0.48583E-04   -0.22604E-03    65   0.273E-01    0.561E-02
RMM:   4    -0.953041181226E+02   -0.14978E-04   -0.38241E-04    66   0.109E-01    0.310E-02
RMM:   5    -0.953041323759E+02   -0.14253E-04   -0.13981E-04    64   0.597E-02    0.109E-02
RMM:   6    -0.953041364899E+02   -0.41140E-05   -0.38235E-05    47   0.301E-02
    274 T=   442. E= -.95098117E+02 F= -.95304136E+02 E0= -.95306310E+02  EK= 0.80056E+00 SP= -.63E+00 SK= 0.40E-01
 bond charge predicted
 prediction of wavefunctions
       N       E                     dE             d eps       ncg     rms          rms(c)
RMM:   1    -0.952836483691E+02    0.20484E-01   -0.19738E-01    64   0.298E+00    0.152E-01
RMM:   2    -0.952846991179E+02   -0.10507E-02   -0.13265E-02    65   0.705E-01    0.105E-01
RMM:   3    -0.952849220840E+02   -0.22297E-03   -0.33187E-03    70   0.293E-01    0.523E-02
RMM:   4    -0.952849767432E+02   -0.54659E-04   -0.70485E-04    70   0.123E-01    0.328E-02
RMM:   5    -0.952849836768E+02   -0.69336E-05   -0.10162E-04    62   0.564E-02    0.866E-03
RMM:   6    -0.952849864919E+02   -0.28151E-05   -0.23696E-05    45   0.257E-02
    275 T=   411. E= -.95101428E+02 F= -.95284986E+02 E0= -.95287184E+02  EK= 0.74411E+00 SP= -.59E+00 SK= 0.33E-01
 bond charge predicted
 prediction of wavefunctions
       N       E                     dE             d eps       ncg     rms          rms(c)
RMM:   1    -0.953382699213E+02   -0.53286E-01   -0.59849E-02    64   0.161E+00    0.837E-02
RMM:   2    -0.953387885837E+02   -0.51866E-03   -0.55986E-03    69   0.408E-01    0.540E-02
RMM:   3    -0.953389462631E+02   -0.15768E-03   -0.14664E-03    70   0.169E-01    0.268E-02
RMM:   4    -0.953389808072E+02   -0.34544E-04   -0.25963E-04    68   0.721E-02    0.887E-03
RMM:   5    -0.953389898255E+02   -0.90183E-05   -0.34629E-05    45   0.299E-02    0.427E-03
RMM:   6    -0.953389966552E+02   -0.68297E-05   -0.71291E-06    40   0.141E-02
    276 T=   419. E= -.95109950E+02 F= -.95338997E+02 E0= -.95341197E+02  EK= 0.75843E+00 SP= -.56E+00 SK= 0.28E-01
 bond charge predicted
 prediction of wavefunctions
       N       E                     dE             d eps       ncg     rms          rms(c)
RMM:   1    -0.953427252728E+02   -0.37354E-02   -0.89050E-02    64   0.191E+00    0.123E-01
RMM:   2    -0.953431022616E+02   -0.37699E-03   -0.59176E-03    65   0.473E-01    0.752E-02
RMM:   3    -0.953432171075E+02   -0.11485E-03   -0.17550E-03    69   0.196E-01    0.348E-02
RMM:   4    -0.953432326838E+02   -0.15576E-04   -0.25477E-04    68   0.807E-02    0.202E-02
RMM:   5    -0.953432398674E+02   -0.71836E-05   -0.53941E-05    54   0.373E-02    0.598E-03
RMM:   6    -0.953432415778E+02   -0.17104E-05   -0.12979E-05    40   0.179E-02
    277 T=   407. E= -.95107335E+02 F= -.95343242E+02 E0= -.95345431E+02  EK= 0.73673E+00 SP= -.52E+00 SK= 0.23E-01
 bond charge predicted
 prediction of wavefunctions
       N       E                     dE             d eps       ncg     rms          rms(c)
RMM:   1    -0.953160813614E+02    0.27159E-01   -0.13533E-01    64   0.226E+00    0.141E-01
RMM:   2    -0.953165837462E+02   -0.50238E-03   -0.81306E-03    64   0.585E-01    0.876E-02
RMM:   3    -0.953167024976E+02   -0.11875E-03   -0.19701E-03    67   0.232E-01    0.421E-02
RMM:   4    -0.953167271926E+02   -0.24695E-04   -0.34005E-04    66   0.977E-02    0.242E-02
RMM:   5    -0.953167403753E+02   -0.13183E-04   -0.82260E-05    58   0.481E-02    0.763E-03
RMM:   6    -0.953167446080E+02   -0.42328E-05   -0.16831E-05    41   0.214E-02
    278 T=   383. E= -.95101292E+02 F= -.95316745E+02 E0= -.95318943E+02  EK= 0.69263E+00 SP= -.49E+00 SK= 0.17E-01
 bond charge predicted
 prediction of wavefunctions
       N       E                     dE             d eps       ncg     rms          rms(c)
RMM:   1    -0.953429889907E+02   -0.26249E-01   -0.97247E-02    64   0.197E+00    0.928E-02
RMM:   2    -0.953436314396E+02   -0.64245E-03   -0.70847E-03    65   0.503E-01    0.574E-02
RMM:   3    -0.953437910136E+02   -0.15957E-03   -0.17315E-03    69   0.198E-01    0.374E-02
RMM:   4    -0.953438116649E+02   -0.20651E-04   -0.30974E-04    66   0.857E-02    0.143E-02
RMM:   5    -0.953438204803E+02   -0.88154E-05   -0.66483E-05    54   0.408E-02    0.759E-03
RMM:   6    -0.953438233722E+02   -0.28920E-05   -0.13957E-05    39   0.193E-02
    279 T=   388. E= -.95100392E+02 F= -.95343823E+02 E0= -.95346089E+02  EK= 0.70163E+00 SP= -.47E+00 SK= 0.11E-01
 bond charge predicted
 prediction of wavefunctions
       N       E                     dE             d eps       ncg     rms          rms(c)
RMM:   1    -0.954426051738E+02   -0.98785E-01   -0.65202E-02    64   0.155E+00    0.803E-02
RMM:   2    -0.954430627836E+02   -0.45761E-03   -0.51649E-03    65   0.397E-01    0.519E-02
RMM:   3    -0.954431837311E+02   -0.12095E-03   -0.13980E-03    70   0.160E-01    0.285E-02
RMM:   4    -0.954432077401E+02   -0.24009E-04   -0.22334E-04    65   0.657E-02    0.121E-02
RMM:   5    -0.954432152691E+02   -0.75289E-05   -0.31316E-05    47   0.287E-02    0.416E-03
RMM:   6    -0.954432189970E+02   -0.37279E-05   -0.67865E-06    39   0.133E-02
    280 T=   432. E= -.95103701E+02 F= -.95443219E+02 E0= -.95445670E+02  EK= 0.78119E+00 SP= -.45E+00 SK= 0.74E-02
 bond charge predicted
 prediction of wavefunctions
       N       E                     dE             d eps       ncg     rms          rms(c)
RMM:   1    -0.955635196859E+02   -0.12030E+00   -0.87773E-02    64   0.182E+00    0.104E-01
RMM:   2    -0.955640591539E+02   -0.53947E-03   -0.65931E-03    66   0.450E-01    0.664E-02
RMM:   3    -0.955641818213E+02   -0.12267E-03   -0.16378E-03    71   0.179E-01    0.387E-02
RMM:   4    -0.955641913276E+02   -0.95063E-05   -0.20668E-04    65   0.711E-02    0.153E-02
RMM:   5    -0.955641945320E+02   -0.32044E-05   -0.51371E-05    50   0.341E-02    0.486E-03
RMM:   6    -0.955641956138E+02   -0.10819E-05   -0.85297E-06    40   0.144E-02
    281 T=   487. E= -.95108249E+02 F= -.95564196E+02 E0= -.95567066E+02  EK= 0.88134E+00 SP= -.43E+00 SK= 0.62E-02
 bond charge predicted
 prediction of wavefunctions
       N       E                     dE             d eps       ncg     rms          rms(c)
RMM:   1    -0.956328806244E+02   -0.68686E-01   -0.10689E-01    64   0.210E+00    0.112E-01
RMM:   2    -0.956334174628E+02   -0.53684E-03   -0.66970E-03    64   0.496E-01    0.697E-02
RMM:   3    -0.956335315727E+02   -0.11411E-03   -0.15507E-03    68   0.193E-01    0.415E-02
RMM:   4    -0.956335472541E+02   -0.15681E-04   -0.28815E-04    67   0.842E-02    0.149E-02
RMM:   5    -0.956335534470E+02   -0.61929E-05   -0.73679E-05    52   0.392E-02    0.731E-03
