  16  16   1   0
  0.6443466E+02  0.7756100E-09  0.1183610E-08  0.1123020E-08  0.2000000E-15
  1.000000000000000E-004
  CAR 
 QM9                                     
      3.71788113    -31.66346364  301     -4.29820479      1.00000000
    -31.663  0.0000E+00  0.0000E+00
    -31.546  0.0000E+00  0.0000E+00
    -31.428  0.0000E+00  0.0000E+00
    -31.310  0.0000E+00  0.0000E+00
    -31.192  0.0000E+00  0.0000E+00
    -31.074  0.0000E+00  0.0000E+00
    -30.956  0.0000E+00  0.0000E+00
    -30.838  0.0000E+00  0.0000E+00
    -30.720  0.0000E+00  0.0000E+00
    -30.602  0.8943E-14  0.1055E-14
    -30.484  0.1118E-08  0.1319E-09
    -30.366  0.9298E-05  0.1097E-05
    -30.248  0.5373E-02  0.6347E-03
    -30.130  0.2393E+00  0.2885E-01
    -30.012  0.9898E+00  0.1456E+00
    -29.894  0.4420E+00  0.1977E+00
    -29.776  0.1938E-01  0.2000E+00
    -29.659  0.6841E-04  0.2000E+00
    -29.541  0.1714E-07  0.2000E+00
    -29.423  0.2871E-12  0.2000E+00
    -29.305  0.0000E+00  0.2000E+00
    -29.187  0.0000E+00  0.2000E+00
    -29.069  0.0000E+00  0.2000E+00
    -28.951  0.0000E+00  0.2000E+00
    -28.833  0.0000E+00  0.2000E+00
    -28.715  0.0000E+00  0.2000E+00
    -28.597  0.0000E+00  0.2000E+00
    -28.479  0.0000E+00  0.2000E+00
    -28.361  0.0000E+00  0.2000E+00
    -28.243  0.0000E+00  0.2000E+00
    -28.125  0.0000E+00  0.2000E+00
    -28.007  0.0000E+00  0.2000E+00
    -27.889  0.0000E+00  0.2000E+00
    -27.772  0.0000E+00  0.2000E+00
    -27.654  0.0000E+00  0.2000E+00
    -27.536  0.0000E+00  0.2000E+00
    -27.418  0.0000E+00  0.2000E+00
    -27.300  0.0000E+00  0.2000E+00
    -27.182  0.0000E+00  0.2000E+00
    -27.064  0.0000E+00  0.2000E+00
    -26.946  0.0000E+00  0.2000E+00
    -26.828  0.0000E+00  0.2000E+00
    -26.710  0.0000E+00  0.2000E+00
    -26.592  0.6998E-12  0.2000E+00
    -26.474  0.3428E-07  0.2000E+00
    -26.356  0.1126E-03  0.2000E+00
    -26.238  0.2643E-01  0.2031E+00
    -26.120  0.5055E+00  0.2627E+00
    -26.002  0.9629E+00  0.3763E+00
    -25.885  0.1972E+00  0.3996E+00
    -25.767  0.3696E-02  0.4000E+00
    -25.649  0.5283E-05  0.4000E+00
    -25.531  0.5223E-09  0.4000E+00
    -25.413  0.3389E-14  0.4000E+00
    -25.295  0.0000E+00  0.4000E+00
    -25.177  0.0000E+00  0.4000E+00
    -25.059  0.0000E+00  0.4000E+00
    -24.941  0.0000E+00  0.4000E+00
    -24.823  0.0000E+00  0.4000E+00
    -24.705  0.0000E+00  0.4000E+00
    -24.587  0.0000E+00  0.4000E+00
    -24.469  0.0000E+00  0.4000E+00
    -24.351  0.0000E+00  0.4000E+00
    -24.233  0.0000E+00  0.4000E+00
    -24.115  0.0000E+00  0.4000E+00
    -23.998  0.0000E+00  0.4000E+00
    -23.880  0.0000E+00  0.4000E+00
    -23.762  0.0000E+00  0.4000E+00
    -23.644  0.0000E+00  0.4000E+00
    -23.526  0.0000E+00  0.4000E+00
    -23.408  0.0000E+00  0.4000E+00
    -23.290  0.0000E+00  0.4000E+00
    -23.172  0.0000E+00  0.4000E+00
    -23.054  0.0000E+00  0.4000E+00
    -22.936  0.0000E+00  0.4000E+00
    -22.818  0.0000E+00  0.4000E+00
    -22.700  0.0000E+00  0.4000E+00
    -22.582  0.0000E+00  0.4000E+00
    -22.464  0.0000E+00  0.4000E+00
    -22.346  0.0000E+00  0.4000E+00
    -22.228  0.0000E+00  0.4000E+00
    -22.111  0.0000E+00  0.4000E+00
    -21.993  0.0000E+00  0.4000E+00
    -21.875  0.0000E+00  0.4000E+00
    -21.757  0.0000E+00  0.4000E+00
    -21.639  0.0000E+00  0.4000E+00
    -21.521  0.0000E+00  0.4000E+00
    -21.403  0.0000E+00  0.4000E+00
    -21.285  0.9668E-13  0.4000E+00
    -21.167  0.7320E-08  0.4000E+00
    -21.049  0.3693E-04  0.4000E+00
    -20.931  0.1313E-01  0.4016E+00
    -20.813  0.3702E+00  0.4452E+00
    -20.695  0.1007E+01  0.5640E+00
    -20.577  0.2967E+00  0.5990E+00
    -20.459  0.8266E-02  0.6000E+00
    -20.341  0.1798E-04  0.6000E+00
    -20.223  0.2736E-08  0.6000E+00
    -20.106  0.2768E-13  0.6000E+00
    -19.988  0.0000E+00  0.6000E+00
    -19.870  0.0000E+00  0.6000E+00
    -19.752  0.0000E+00  0.6000E+00
    -19.634  0.0000E+00  0.6000E+00
    -19.516  0.0000E+00  0.6000E+00
    -19.398  0.0000E+00  0.6000E+00
    -19.280  0.0000E+00  0.6000E+00
    -19.162  0.4424E-13  0.6000E+00
    -19.044  0.3964E-08  0.6000E+00
    -18.926  0.2360E-04  0.6000E+00
    -18.808  0.9855E-02  0.6012E+00
    -18.690  0.3231E+00  0.6393E+00
    -18.572  0.1010E+01  0.7584E+00
    -18.454  0.3417E+00  0.7987E+00
    -18.336  0.1108E-01  0.8000E+00
    -18.219  0.2831E-04  0.8000E+00
    -18.101  0.5562E-08  0.8000E+00
    -17.983  0.4952E-05  0.8000E+00
    -17.865  0.3540E-02  0.8004E+00
    -17.747  0.1928E+00  0.8232E+00
    -17.629  0.9592E+00  0.9363E+00
    -17.511  0.5128E+00  0.9968E+00
    -17.393  0.2735E-01  0.1000E+01
    -17.275  0.1190E-03  0.1000E+01
    -17.157  0.3704E-07  0.1000E+01
    -17.039  0.8314E-12  0.1000E+01
    -16.921  0.4913E-08  0.1000E+01
    -16.803  0.2761E-04  0.1000E+01
    -16.685  0.1090E-01  0.1001E+01
    -16.567  0.3391E+00  0.1041E+01
    -16.449  0.1010E+01  0.1160E+01
    -16.332  0.3256E+00  0.1199E+01
    -16.214  0.1001E-01  0.1200E+01
    -16.096  0.2420E-04  0.1200E+01
    -15.978  0.4102E-08  0.1200E+01
    -15.860  0.4632E-13  0.1200E+01
    -15.742  0.0000E+00  0.1200E+01
    -15.624  0.0000E+00  0.1200E+01
    -15.506  0.0000E+00  0.1200E+01
    -15.388  0.0000E+00  0.1200E+01
    -15.270  0.6778E-14  0.1200E+01
    -15.152  0.9051E-09  0.1200E+01
    -15.034  0.7949E-05  0.1200E+01
    -14.916  0.4845E-02  0.1201E+01
    -14.798  0.2270E+00  0.1227E+01
    -14.680  0.9833E+00  0.1343E+01
    -14.562  0.4594E+00  0.1397E+01
    -14.445  0.2127E-01  0.1400E+01
    -14.327  0.2426E-01  0.1403E+01
    -14.209  0.4867E+00  0.1460E+01
    -14.091  0.9718E+00  0.1575E+01
    -13.973  0.2089E+00  0.1600E+01
    -13.855  0.4127E-02  0.1600E+01
    -13.737  0.6238E-05  0.1600E+01
    -13.619  0.6362E-05  0.1600E+01
    -13.501  0.4181E-02  0.1600E+01
    -13.383  0.2103E+00  0.1625E+01
    -13.265  0.9728E+00  0.1740E+01
    -13.147  0.4845E+00  0.1797E+01
    -13.029  0.2393E-01  0.1800E+01
    -12.911  0.9589E-04  0.1800E+01
    -12.793  0.2739E-07  0.1800E+01
    -12.675  0.1808E-07  0.1800E+01
    -12.558  0.7110E-04  0.1800E+01
    -12.440  0.1986E-01  0.1802E+01
    -12.322  0.4467E+00  0.1855E+01
    -12.204  0.9881E+00  0.1972E+01
    -12.086  0.2359E+00  0.1999E+01
    -11.968  0.5224E-02  0.2000E+01
    -11.850  0.8911E-05  0.2000E+01
    -11.732  0.1252E-07  0.2000E+01
    -11.614  0.5116E-04  0.2000E+01
    -11.496  0.1614E-01  0.2002E+01
    -11.378  0.4071E+00  0.2050E+01
    -11.260  0.1000E+01  0.2168E+01
    -11.142  0.2656E+00  0.2199E+01
    -11.024  0.7027E-02  0.2200E+01
    -10.906  0.5824E-01  0.2207E+01
    -10.788  0.6893E+00  0.2288E+01
    -10.671  0.9246E+00  0.2397E+01
    -10.553  0.8905E+00  0.2502E+01
    -10.435  0.7527E+00  0.2591E+01
    -10.317  0.7519E-01  0.2600E+01
    -10.199  0.6456E-03  0.2600E+01
    -10.081  0.4070E-06  0.2600E+01
     -9.963  0.1225E-05  0.2600E+01
     -9.845  0.1379E-02  0.2600E+01
     -9.727  0.1158E+00  0.2614E+01
     -9.609  0.8711E+00  0.2717E+01
     -9.491  0.1085E+01  0.2845E+01
     -9.373  0.1417E+01  0.3012E+01
     -9.255  0.1517E+01  0.3191E+01
     -9.137  0.1377E+01  0.3353E+01
     -9.019  0.1191E+01  0.3493E+01
     -8.901  0.8132E+00  0.3589E+01
     -8.784  0.9207E-01  0.3600E+01
     -8.666  0.1666E+00  0.3620E+01
     -8.548  0.9321E+00  0.3730E+01
     -8.430  0.5611E+00  0.3796E+01
     -8.312  0.3421E-01  0.3800E+01
     -8.194  0.3571E-01  0.3804E+01
     -8.076  0.5710E+00  0.3872E+01
     -7.958  0.9259E+00  0.3981E+01
     -7.840  0.1632E+00  0.4000E+01
     -7.722  0.1660E+00  0.4020E+01
     -7.604  0.9358E+00  0.4130E+01
     -7.486  0.8281E+00  0.4228E+01
     -7.368  0.1034E+01  0.4350E+01
     -7.250  0.4111E+00  0.4398E+01
     -7.132  0.1648E-01  0.4400E+01
     -7.014  0.5284E-04  0.4400E+01
     -6.897  0.1199E-07  0.4400E+01
     -6.779  0.1817E-12  0.4400E+01
     -6.661  0.0000E+00  0.4400E+01
     -6.543  0.0000E+00  0.4400E+01
     -6.425  0.0000E+00  0.4400E+01
     -6.307  0.0000E+00  0.4400E+01
     -6.189  0.0000E+00  0.4400E+01
     -6.071  0.0000E+00  0.4400E+01
     -5.953  0.2071E-14  0.4400E+01
     -5.835  0.3565E-09  0.4400E+01
     -5.717  0.3973E-05  0.4400E+01
     -5.599  0.3056E-02  0.4400E+01
     -5.481  0.1784E+00  0.4421E+01
     -5.363  0.9457E+00  0.4533E+01
     -5.245  0.5378E+00  0.4596E+01
     -5.127  0.3088E-01  0.4600E+01
     -5.010  0.4004E-01  0.4605E+01
     -4.892  0.5978E+00  0.4675E+01
     -4.774  0.9085E+00  0.4782E+01
     -4.656  0.1473E+00  0.4800E+01
     -4.538  0.2140E-02  0.4800E+01
     -4.420  0.2338E-05  0.4800E+01
     -4.302  0.1756E-09  0.4800E+01
     -4.184  0.7531E-15  0.4800E+01
     -4.066  0.0000E+00  0.4800E+01
     -3.948  0.0000E+00  0.4800E+01
     -3.830  0.0000E+00  0.4800E+01
     -3.712  0.0000E+00  0.4800E+01
     -3.594  0.0000E+00  0.4800E+01
     -3.476  0.0000E+00  0.4800E+01
     -3.358  0.0000E+00  0.4800E+01
     -3.240  0.0000E+00  0.4800E+01
     -3.123  0.0000E+00  0.4800E+01
     -3.005  0.0000E+00  0.4800E+01
     -2.887  0.0000E+00  0.4800E+01
     -2.769  0.0000E+00  0.4800E+01
     -2.651  0.0000E+00  0.4800E+01
     -2.533  0.0000E+00  0.4800E+01
     -2.415  0.0000E+00  0.4800E+01
     -2.297  0.0000E+00  0.4800E+01
     -2.179  0.0000E+00  0.4800E+01
     -2.061  0.0000E+00  0.4800E+01
     -1.943  0.0000E+00  0.4800E+01
     -1.825  0.0000E+00  0.4800E+01
     -1.707  0.0000E+00  0.4800E+01
     -1.589  0.0000E+00  0.4800E+01
     -1.471  0.0000E+00  0.4800E+01
     -1.353  0.0000E+00  0.4800E+01
     -1.236  0.0000E+00  0.4800E+01
     -1.118  0.0000E+00  0.4800E+01
     -1.000  0.1080E-11  0.4800E+01
     -0.882  0.4800E-07  0.4800E+01
     -0.764  0.1433E-03  0.4800E+01
     -0.646  0.3065E-01  0.4804E+01
     -0.528  0.5418E+00  0.4868E+01
     -0.410  0.1157E+01  0.5004E+01
     -0.292  0.1331E+01  0.5161E+01
     -0.174  0.1439E+01  0.5331E+01
     -0.056  0.5575E+00  0.5396E+01
      0.062  0.3023E-01  0.5400E+01
      0.180  0.2620E-01  0.5403E+01
      0.298  0.5026E+00  0.5462E+01
      0.416  0.9803E+00  0.5578E+01
      0.534  0.6039E+00  0.5649E+01
      0.651  0.1005E+01  0.5768E+01
      0.769  0.3545E+00  0.5810E+01
      0.887  0.7949E+00  0.5903E+01
      1.005  0.8231E+00  0.6000E+01
      1.123  0.8306E+00  0.6098E+01
      1.241  0.7776E+00  0.6190E+01
      1.359  0.8359E-01  0.6200E+01
      1.477  0.3372E-01  0.6204E+01
      1.595  0.5542E+00  0.6269E+01
      1.713  0.9875E+00  0.6386E+01
      1.831  0.9682E+00  0.6500E+01
      1.949  0.1973E+01  0.6733E+01
      2.067  0.2091E+01  0.6979E+01
      2.185  0.1593E+01  0.7167E+01
      2.303  0.2737E+00  0.7199E+01
      2.421  0.5544E-02  0.7200E+01
      2.539  0.9360E-05  0.7200E+01
      2.656  0.1120E-08  0.7200E+01
      2.774  0.9037E-14  0.7200E+01
      2.892  0.0000E+00  0.7200E+01
      3.010  0.0000E+00  0.7200E+01
      3.128  0.0000E+00  0.7200E+01
      3.246  0.0000E+00  0.7200E+01
      3.364  0.0000E+00  0.7200E+01
      3.482  0.0000E+00  0.7200E+01
      3.600  0.0000E+00  0.7200E+01
      3.718  0.0000E+00  0.7200E+01
      3.71788113    -31.66346364  301     -4.29820479      1.00000000
    -31.663  0.0000E+00  0.0000E+00  0.0000E+00  0.0000E+00  0.0000E+00  0.0000E+00  0.0000E+00  0.0000E+00  0.0000E+00
    -31.546  0.0000E+00  0.0000E+00  0.0000E+00  0.0000E+00  0.0000E+00  0.0000E+00  0.0000E+00  0.0000E+00  0.0000E+00
    -31.428  0.0000E+00  0.0000E+00  0.0000E+00  0.0000E+00  0.0000E+00  0.0000E+00  0.0000E+00  0.0000E+00  0.0000E+00
    -31.310  0.0000E+00  0.0000E+00  0.0000E+00  0.0000E+00  0.0000E+00  0.0000E+00  0.0000E+00  0.0000E+00  0.0000E+00
    -31.192  0.0000E+00  0.0000E+00  0.0000E+00  0.0000E+00  0.0000E+00  0.0000E+00  0.0000E+00  0.0000E+00  0.0000E+00
    -31.074  0.0000E+00  0.0000E+00  0.0000E+00  0.0000E+00  0.0000E+00  0.0000E+00  0.0000E+00  0.0000E+00  0.0000E+00
    -30.956  0.0000E+00  0.0000E+00  0.0000E+00  0.0000E+00  0.0000E+00  0.0000E+00  0.0000E+00  0.0000E+00  0.0000E+00
    -30.838  0.0000E+00  0.0000E+00  0.0000E+00  0.0000E+00  0.0000E+00  0.0000E+00  0.0000E+00  0.0000E+00  0.0000E+00
    -30.720  0.0000E+00  0.0000E+00  0.0000E+00  0.0000E+00  0.0000E+00  0.0000E+00  0.0000E+00  0.0000E+00  0.0000E+00
    -30.602  0.4461E-17  0.1519E-17  0.7686E-18  0.3998E-20  0.0000E+00  0.0000E+00  0.0000E+00  0.0000E+00  0.0000E+00
    -30.484  0.5579E-12  0.1899E-12  0.9612E-13  0.4999E-15  0.0000E+00  0.0000E+00  0.0000E+00  0.0000E+00  0.0000E+00
    -30.366  0.4638E-08  0.1579E-08  0.7991E-09  0.4156E-11  0.0000E+00  0.0000E+00  0.0000E+00  0.0000E+00  0.0000E+00
    -30.248  0.2680E-05  0.9124E-06  0.4617E-06  0.2402E-08  0.0000E+00  0.0000E+00  0.0000E+00  0.0000E+00  0.0000E+00
    -30.130  0.1193E-03  0.4063E-04  0.2056E-04  0.1069E-06  0.0000E+00  0.0000E+00  0.0000E+00  0.0000E+00  0.0000E+00
    -30.012  0.4937E-03  0.1681E-03  0.8506E-04  0.4424E-06  0.0000E+00  0.0000E+00  0.0000E+00  0.0000E+00  0.0000E+00
    -29.894  0.2205E-03  0.7505E-04  0.3798E-04  0.1976E-06  0.0000E+00  0.0000E+00  0.0000E+00  0.0000E+00  0.0000E+00
    -29.776  0.9669E-05  0.3292E-05  0.1666E-05  0.8665E-08  0.0000E+00  0.0000E+00  0.0000E+00  0.0000E+00  0.0000E+00
    -29.659  0.3413E-07  0.1162E-07  0.5880E-08  0.3058E-10  0.0000E+00  0.0000E+00  0.0000E+00  0.0000E+00  0.0000E+00
    -29.541  0.8548E-11  0.2910E-11  0.1473E-11  0.7660E-14  0.0000E+00  0.0000E+00  0.0000E+00  0.0000E+00  0.0000E+00
    -29.423  0.1432E-15  0.4876E-16  0.2468E-16  0.1283E-18  0.0000E+00  0.0000E+00  0.0000E+00  0.0000E+00  0.0000E+00
    -29.305  0.0000E+00  0.0000E+00  0.0000E+00  0.0000E+00  0.0000E+00  0.0000E+00  0.0000E+00  0.0000E+00  0.0000E+00
    -29.187  0.0000E+00  0.0000E+00  0.0000E+00  0.0000E+00  0.0000E+00  0.0000E+00  0.0000E+00  0.0000E+00  0.0000E+00
    -29.069  0.0000E+00  0.0000E+00  0.0000E+00  0.0000E+00  0.0000E+00  0.0000E+00  0.0000E+00  0.0000E+00  0.0000E+00
    -28.951  0.0000E+00  0.0000E+00  0.0000E+00  0.0000E+00  0.0000E+00  0.0000E+00  0.0000E+00  0.0000E+00  0.0000E+00
    -28.833  0.0000E+00  0.0000E+00  0.0000E+00  0.0000E+00  0.0000E+00  0.0000E+00  0.0000E+00  0.0000E+00  0.0000E+00
    -28.715  0.0000E+00  0.0000E+00  0.0000E+00  0.0000E+00  0.0000E+00  0.0000E+00  0.0000E+00  0.0000E+00  0.0000E+00
    -28.597  0.0000E+00  0.0000E+00  0.0000E+00  0.0000E+00  0.0000E+00  0.0000E+00  0.0000E+00  0.0000E+00  0.0000E+00
    -28.479  0.0000E+00  0.0000E+00  0.0000E+00  0.0000E+00  0.0000E+00  0.0000E+00  0.0000E+00  0.0000E+00  0.0000E+00
    -28.361  0.0000E+00  0.0000E+00  0.0000E+00  0.0000E+00  0.0000E+00  0.0000E+00  0.0000E+00  0.0000E+00  0.0000E+00
    -28.243  0.0000E+00  0.0000E+00  0.0000E+00  0.0000E+00  0.0000E+00  0.0000E+00  0.0000E+00  0.0000E+00  0.0000E+00
    -28.125  0.0000E+00  0.0000E+00  0.0000E+00  0.0000E+00  0.0000E+00  0.0000E+00  0.0000E+00  0.0000E+00  0.0000E+00
    -28.007  0.0000E+00  0.0000E+00  0.0000E+00  0.0000E+00  0.0000E+00  0.0000E+00  0.0000E+00  0.0000E+00  0.0000E+00
    -27.889  0.0000E+00  0.0000E+00  0.0000E+00  0.0000E+00  0.0000E+00  0.0000E+00  0.0000E+00  0.0000E+00  0.0000E+00
    -27.772  0.0000E+00  0.0000E+00  0.0000E+00  0.0000E+00  0.0000E+00  0.0000E+00  0.0000E+00  0.0000E+00  0.0000E+00
    -27.654  0.0000E+00  0.0000E+00  0.0000E+00  0.0000E+00  0.0000E+00  0.0000E+00  0.0000E+00  0.0000E+00  0.0000E+00
    -27.536  0.0000E+00  0.0000E+00  0.0000E+00  0.0000E+00  0.0000E+00  0.0000E+00  0.0000E+00  0.0000E+00  0.0000E+00
    -27.418  0.0000E+00  0.0000E+00  0.0000E+00  0.0000E+00  0.0000E+00  0.0000E+00  0.0000E+00  0.0000E+00  0.0000E+00
    -27.300  0.0000E+00  0.0000E+00  0.0000E+00  0.0000E+00  0.0000E+00  0.0000E+00  0.0000E+00  0.0000E+00  0.0000E+00
    -27.182  0.0000E+00  0.0000E+00  0.0000E+00  0.0000E+00  0.0000E+00  0.0000E+00  0.0000E+00  0.0000E+00  0.0000E+00
    -27.064  0.0000E+00  0.0000E+00  0.0000E+00  0.0000E+00  0.0000E+00  0.0000E+00  0.0000E+00  0.0000E+00  0.0000E+00
    -26.946  0.0000E+00  0.0000E+00  0.0000E+00  0.0000E+00  0.0000E+00  0.0000E+00  0.0000E+00  0.0000E+00  0.0000E+00
    -26.828  0.0000E+00  0.0000E+00  0.0000E+00  0.0000E+00  0.0000E+00  0.0000E+00  0.0000E+00  0.0000E+00  0.0000E+00
    -26.710  0.0000E+00  0.0000E+00  0.0000E+00  0.0000E+00  0.0000E+00  0.0000E+00  0.0000E+00  0.0000E+00  0.0000E+00
    -26.592  0.8869E-18  0.3299E-19  0.1029E-17  0.4741E-20  0.0000E+00  0.0000E+00  0.0000E+00  0.0000E+00  0.0000E+00
    -26.474  0.4344E-13  0.1616E-14  0.5042E-13  0.2322E-15  0.0000E+00  0.0000E+00  0.0000E+00  0.0000E+00  0.0000E+00
    -26.356  0.1427E-09  0.5309E-11  0.1657E-09  0.7629E-12  0.0000E+00  0.0000E+00  0.0000E+00  0.0000E+00  0.0000E+00
    -26.238  0.3349E-07  0.1246E-08  0.3887E-07  0.1790E-09  0.0000E+00  0.0000E+00  0.0000E+00  0.0000E+00  0.0000E+00
    -26.120  0.6406E-06  0.2383E-07  0.7435E-06  0.3424E-08  0.0000E+00  0.0000E+00  0.0000E+00  0.0000E+00  0.0000E+00
    -26.002  0.1220E-05  0.4539E-07  0.1416E-05  0.6523E-08  0.0000E+00  0.0000E+00  0.0000E+00  0.0000E+00  0.0000E+00
    -25.885  0.2499E-06  0.9297E-08  0.2901E-06  0.1336E-08  0.0000E+00  0.0000E+00  0.0000E+00  0.0000E+00  0.0000E+00
    -25.767  0.4684E-08  0.1742E-09  0.5436E-08  0.2504E-10  0.0000E+00  0.0000E+00  0.0000E+00  0.0000E+00  0.0000E+00
    -25.649  0.6696E-11  0.2491E-12  0.7771E-11  0.3579E-13  0.0000E+00  0.0000E+00  0.0000E+00  0.0000E+00  0.0000E+00
    -25.531  0.6620E-15  0.2462E-16  0.7683E-15  0.3539E-17  0.0000E+00  0.0000E+00  0.0000E+00  0.0000E+00  0.0000E+00
    -25.413  0.4295E-20  0.1598E-21  0.4985E-20  0.2296E-22  0.0000E+00  0.0000E+00  0.0000E+00  0.0000E+00  0.0000E+00
    -25.295  0.0000E+00  0.0000E+00  0.0000E+00  0.0000E+00  0.0000E+00  0.0000E+00  0.0000E+00  0.0000E+00  0.0000E+00
    -25.177  0.0000E+00  0.0000E+00  0.0000E+00  0.0000E+00  0.0000E+00  0.0000E+00  0.0000E+00  0.0000E+00  0.0000E+00
    -25.059  0.0000E+00  0.0000E+00  0.0000E+00  0.0000E+00  0.0000E+00  0.0000E+00  0.0000E+00  0.0000E+00  0.0000E+00
    -24.941  0.0000E+00  0.0000E+00  0.0000E+00  0.0000E+00  0.0000E+00  0.0000E+00  0.0000E+00  0.0000E+00  0.0000E+00
    -24.823  0.0000E+00  0.0000E+00  0.0000E+00  0.0000E+00  0.0000E+00  0.0000E+00  0.0000E+00  0.0000E+00  0.0000E+00
    -24.705  0.0000E+00  0.0000E+00  0.0000E+00  0.0000E+00  0.0000E+00  0.0000E+00  0.0000E+00  0.0000E+00  0.0000E+00
    -24.587  0.0000E+00  0.0000E+00  0.0000E+00  0.0000E+00  0.0000E+00  0.0000E+00  0.0000E+00  0.0000E+00  0.0000E+00
    -24.469  0.0000E+00  0.0000E+00  0.0000E+00  0.0000E+00  0.0000E+00  0.0000E+00  0.0000E+00  0.0000E+00  0.0000E+00
    -24.351  0.0000E+00  0.0000E+00  0.0000E+00  0.0000E+00  0.0000E+00  0.0000E+00  0.0000E+00  0.0000E+00  0.0000E+00
    -24.233  0.0000E+00  0.0000E+00  0.0000E+00  0.0000E+00  0.0000E+00  0.0000E+00  0.0000E+00  0.0000E+00  0.0000E+00
    -24.115  0.0000E+00  0.0000E+00  0.0000E+00  0.0000E+00  0.0000E+00  0.0000E+00  0.0000E+00  0.0000E+00  0.0000E+00
    -23.998  0.0000E+00  0.0000E+00  0.0000E+00  0.0000E+00  0.0000E+00  0.0000E+00  0.0000E+00  0.0000E+00  0.0000E+00
    -23.880  0.0000E+00  0.0000E+00  0.0000E+00  0.0000E+00  0.0000E+00  0.0000E+00  0.0000E+00  0.0000E+00  0.0000E+00
    -23.762  0.0000E+00  0.0000E+00  0.0000E+00  0.0000E+00  0.0000E+00  0.0000E+00  0.0000E+00  0.0000E+00  0.0000E+00
    -23.644  0.0000E+00  0.0000E+00  0.0000E+00  0.0000E+00  0.0000E+00  0.0000E+00  0.0000E+00  0.0000E+00  0.0000E+00
    -23.526  0.0000E+00  0.0000E+00  0.0000E+00  0.0000E+00  0.0000E+00  0.0000E+00  0.0000E+00  0.0000E+00  0.0000E+00
    -23.408  0.0000E+00  0.0000E+00  0.0000E+00  0.0000E+00  0.0000E+00  0.0000E+00  0.0000E+00  0.0000E+00  0.0000E+00
    -23.290  0.0000E+00  0.0000E+00  0.0000E+00  0.0000E+00  0.0000E+00  0.0000E+00  0.0000E+00  0.0000E+00  0.0000E+00
    -23.172  0.0000E+00  0.0000E+00  0.0000E+00  0.0000E+00  0.0000E+00  0.0000E+00  0.0000E+00  0.0000E+00  0.0000E+00
    -23.054  0.0000E+00  0.0000E+00  0.0000E+00  0.0000E+00  0.0000E+00  0.0000E+00  0.0000E+00  0.0000E+00  0.0000E+00
    -22.936  0.0000E+00  0.0000E+00  0.0000E+00  0.0000E+00  0.0000E+00  0.0000E+00  0.0000E+00  0.0000E+00  0.0000E+00
    -22.818  0.0000E+00  0.0000E+00  0.0000E+00  0.0000E+00  0.0000E+00  0.0000E+00  0.0000E+00  0.0000E+00  0.0000E+00
    -22.700  0.0000E+00  0.0000E+00  0.0000E+00  0.0000E+00  0.0000E+00  0.0000E+00  0.0000E+00  0.0000E+00  0.0000E+00
    -22.582  0.0000E+00  0.0000E+00  0.0000E+00  0.0000E+00  0.0000E+00  0.0000E+00  0.0000E+00  0.0000E+00  0.0000E+00
    -22.464  0.0000E+00  0.0000E+00  0.0000E+00  0.0000E+00  0.0000E+00  0.0000E+00  0.0000E+00  0.0000E+00  0.0000E+00
    -22.346  0.0000E+00  0.0000E+00  0.0000E+00  0.0000E+00  0.0000E+00  0.0000E+00  0.0000E+00  0.0000E+00  0.0000E+00
    -22.228  0.0000E+00  0.0000E+00  0.0000E+00  0.0000E+00  0.0000E+00  0.0000E+00  0.0000E+00  0.0000E+00  0.0000E+00
    -22.111  0.0000E+00  0.0000E+00  0.0000E+00  0.0000E+00  0.0000E+00  0.0000E+00  0.0000E+00  0.0000E+00  0.0000E+00
    -21.993  0.0000E+00  0.0000E+00  0.0000E+00  0.0000E+00  0.0000E+00  0.0000E+00  0.0000E+00  0.0000E+00  0.0000E+00
    -21.875  0.0000E+00  0.0000E+00  0.0000E+00  0.0000E+00  0.0000E+00  0.0000E+00  0.0000E+00  0.0000E+00  0.0000E+00
    -21.757  0.0000E+00  0.0000E+00  0.0000E+00  0.0000E+00  0.0000E+00  0.0000E+00  0.0000E+00  0.0000E+00  0.0000E+00
    -21.639  0.0000E+00  0.0000E+00  0.0000E+00  0.0000E+00  0.0000E+00  0.0000E+00  0.0000E+00  0.0000E+00  0.0000E+00
    -21.521  0.0000E+00  0.0000E+00  0.0000E+00  0.0000E+00  0.0000E+00  0.0000E+00  0.0000E+00  0.0000E+00  0.0000E+00
    -21.403  0.0000E+00  0.0000E+00  0.0000E+00  0.0000E+00  0.0000E+00  0.0000E+00  0.0000E+00  0.0000E+00  0.0000E+00
    -21.285  0.1806E-13  0.2536E-14  0.3265E-17  0.6081E-18  0.0000E+00  0.0000E+00  0.0000E+00  0.0000E+00  0.0000E+00
    -21.167  0.1368E-08  0.1920E-09  0.2472E-12  0.4604E-13  0.0000E+00  0.0000E+00  0.0000E+00  0.0000E+00  0.0000E+00
    -21.049  0.6899E-05  0.9688E-06  0.1247E-08  0.2323E-09  0.0000E+00  0.0000E+00  0.0000E+00  0.0000E+00  0.0000E+00
    -20.931  0.2453E-02  0.3444E-03  0.4434E-06  0.8258E-07  0.0000E+00  0.0000E+00  0.0000E+00  0.0000E+00  0.0000E+00
    -20.813  0.6915E-01  0.9710E-02  0.1250E-04  0.2328E-05  0.0000E+00  0.0000E+00  0.0000E+00  0.0000E+00  0.0000E+00
    -20.695  0.1882E+00  0.2643E-01  0.3402E-04  0.6337E-05  0.0000E+00  0.0000E+00  0.0000E+00  0.0000E+00  0.0000E+00
    -20.577  0.5543E-01  0.7783E-02  0.1002E-04  0.1866E-05  0.0000E+00  0.0000E+00  0.0000E+00  0.0000E+00  0.0000E+00
    -20.459  0.1544E-02  0.2168E-03  0.2791E-06  0.5199E-07  0.0000E+00  0.0000E+00  0.0000E+00  0.0000E+00  0.0000E+00
    -20.341  0.3359E-05  0.4717E-06  0.6072E-09  0.1131E-09  0.0000E+00  0.0000E+00  0.0000E+00  0.0000E+00  0.0000E+00
    -20.223  0.5111E-09  0.7176E-10  0.9238E-13  0.1721E-13  0.0000E+00  0.0000E+00  0.0000E+00  0.0000E+00  0.0000E+00
    -20.106  0.5170E-14  0.7260E-15  0.9346E-18  0.1741E-18  0.0000E+00  0.0000E+00  0.0000E+00  0.0000E+00  0.0000E+00
    -19.988  0.0000E+00  0.0000E+00  0.0000E+00  0.0000E+00  0.0000E+00  0.0000E+00  0.0000E+00  0.0000E+00  0.0000E+00
    -19.870  0.0000E+00  0.0000E+00  0.0000E+00  0.0000E+00  0.0000E+00  0.0000E+00  0.0000E+00  0.0000E+00  0.0000E+00
    -19.752  0.0000E+00  0.0000E+00  0.0000E+00  0.0000E+00  0.0000E+00  0.0000E+00  0.0000E+00  0.0000E+00  0.0000E+00
    -19.634  0.0000E+00  0.0000E+00  0.0000E+00  0.0000E+00  0.0000E+00  0.0000E+00  0.0000E+00  0.0000E+00  0.0000E+00
    -19.516  0.0000E+00  0.0000E+00  0.0000E+00  0.0000E+00  0.0000E+00  0.0000E+00  0.0000E+00  0.0000E+00  0.0000E+00
    -19.398  0.0000E+00  0.0000E+00  0.0000E+00  0.0000E+00  0.0000E+00  0.0000E+00  0.0000E+00  0.0000E+00  0.0000E+00
    -19.280  0.0000E+00  0.0000E+00  0.0000E+00  0.0000E+00  0.0000E+00  0.0000E+00  0.0000E+00  0.0000E+00  0.0000E+00
    -19.162  0.5685E-13  0.2513E-14  0.5468E-18  0.6938E-18  0.0000E+00  0.0000E+00  0.0000E+00  0.0000E+00  0.0000E+00
    -19.044  0.5094E-08  0.2251E-09  0.4899E-13  0.6216E-13  0.0000E+00  0.0000E+00  0.0000E+00  0.0000E+00  0.0000E+00
    -18.926  0.3033E-04  0.1340E-05  0.2917E-09  0.3701E-09  0.0000E+00  0.0000E+00  0.0000E+00  0.0000E+00  0.0000E+00
    -18.808  0.1266E-01  0.5597E-03  0.1218E-06  0.1545E-06  0.0000E+00  0.0000E+00  0.0000E+00  0.0000E+00  0.0000E+00
    -18.690  0.4152E+00  0.1835E-01  0.3994E-05  0.5067E-05  0.0000E+00  0.0000E+00  0.0000E+00  0.0000E+00  0.0000E+00
    -18.572  0.1298E+01  0.5736E-01  0.1248E-04  0.1584E-04  0.0000E+00  0.0000E+00  0.0000E+00  0.0000E+00  0.0000E+00
    -18.454  0.4391E+00  0.1941E-01  0.4223E-05  0.5358E-05  0.0000E+00  0.0000E+00  0.0000E+00  0.0000E+00  0.0000E+00
    -18.336  0.1423E-01  0.6291E-03  0.1369E-06  0.1737E-06  0.0000E+00  0.0000E+00  0.0000E+00  0.0000E+00  0.0000E+00
    -18.219  0.3637E-04  0.1608E-05  0.3499E-09  0.4439E-09  0.0000E+00  0.0000E+00  0.0000E+00  0.0000E+00  0.0000E+00
    -18.101  0.6532E-08  0.2887E-09  0.2247E-11  0.8472E-13  0.0000E+00  0.0000E+00  0.0000E+00  0.0000E+00  0.0000E+00
    -17.983  0.6893E-08  0.1121E-09  0.2258E-07  0.5187E-10  0.0000E+00  0.0000E+00  0.0000E+00  0.0000E+00  0.0000E+00
    -17.865  0.4927E-05  0.8017E-07  0.1614E-04  0.3708E-07  0.0000E+00  0.0000E+00  0.0000E+00  0.0000E+00  0.0000E+00
    -17.747  0.2684E-03  0.4367E-05  0.8794E-03  0.2020E-05  0.0000E+00  0.0000E+00  0.0000E+00  0.0000E+00  0.0000E+00
    -17.629  0.1335E-02  0.2172E-04  0.4374E-02  0.1005E-04  0.0000E+00  0.0000E+00  0.0000E+00  0.0000E+00  0.0000E+00
    -17.511  0.7138E-03  0.1161E-04  0.2339E-02  0.5372E-05  0.0000E+00  0.0000E+00  0.0000E+00  0.0000E+00  0.0000E+00
    -17.393  0.3807E-04  0.6193E-06  0.1247E-03  0.2865E-06  0.0000E+00  0.0000E+00  0.0000E+00  0.0000E+00  0.0000E+00
    -17.275  0.1657E-06  0.2696E-08  0.5429E-06  0.1247E-08  0.0000E+00  0.0000E+00  0.0000E+00  0.0000E+00  0.0000E+00
    -17.157  0.5155E-10  0.8387E-12  0.1689E-09  0.3879E-12  0.0000E+00  0.0000E+00  0.0000E+00  0.0000E+00  0.0000E+00
    -17.039  0.1229E-12  0.2619E-15  0.3533E-14  0.8114E-17  0.0000E+00  0.0000E+00  0.0000E+00  0.0000E+00  0.0000E+00
    -16.921  0.1028E-07  0.2064E-10  0.5558E-12  0.1192E-14  0.0000E+00  0.0000E+00  0.0000E+00  0.0000E+00  0.0000E+00
    -16.803  0.5780E-04  0.1160E-06  0.3124E-08  0.6699E-11  0.0000E+00  0.0000E+00  0.0000E+00  0.0000E+00  0.0000E+00
    -16.685  0.2282E-01  0.4580E-04  0.1233E-05  0.2645E-08  0.0000E+00  0.0000E+00  0.0000E+00  0.0000E+00  0.0000E+00
    -16.567  0.7099E+00  0.1425E-02  0.3836E-04  0.8227E-07  0.0000E+00  0.0000E+00  0.0000E+00  0.0000E+00  0.0000E+00
    -16.449  0.2114E+01  0.4244E-02  0.1143E-03  0.2451E-06  0.0000E+00  0.0000E+00  0.0000E+00  0.0000E+00  0.0000E+00
    -16.332  0.6816E+00  0.1368E-02  0.3684E-04  0.7900E-07  0.0000E+00  0.0000E+00  0.0000E+00  0.0000E+00  0.0000E+00
    -16.214  0.2096E-01  0.4208E-04  0.1133E-05  0.2430E-08  0.0000E+00  0.0000E+00  0.0000E+00  0.0000E+00  0.0000E+00
    -16.096  0.5065E-04  0.1017E-06  0.2737E-08  0.5871E-11  0.0000E+00  0.0000E+00  0.0000E+00  0.0000E+00  0.0000E+00
    -15.978  0.8586E-08  0.1723E-10  0.4640E-12  0.9951E-15  0.0000E+00  0.0000E+00  0.0000E+00  0.0000E+00  0.0000E+00
    -15.860  0.9695E-13  0.1946E-15  0.5239E-17  0.1124E-19  0.0000E+00  0.0000E+00  0.0000E+00  0.0000E+00  0.0000E+00
    -15.742  0.0000E+00  0.0000E+00  0.0000E+00  0.0000E+00  0.0000E+00  0.0000E+00  0.0000E+00  0.0000E+00  0.0000E+00
    -15.624  0.0000E+00  0.0000E+00  0.0000E+00  0.0000E+00  0.0000E+00  0.0000E+00  0.0000E+00  0.0000E+00  0.0000E+00
    -15.506  0.0000E+00  0.0000E+00  0.0000E+00  0.0000E+00  0.0000E+00  0.0000E+00  0.0000E+00  0.0000E+00  0.0000E+00
    -15.388  0.0000E+00  0.0000E+00  0.0000E+00  0.0000E+00  0.0000E+00  0.0000E+00  0.0000E+00  0.0000E+00  0.0000E+00
    -15.270  0.3217E-15  0.3570E-16  0.2102E-15  0.3313E-18  0.0000E+00  0.0000E+00  0.0000E+00  0.0000E+00  0.0000E+00
    -15.152  0.4296E-10  0.4767E-11  0.2806E-10  0.4425E-13  0.0000E+00  0.0000E+00  0.0000E+00  0.0000E+00  0.0000E+00
    -15.034  0.3773E-06  0.4187E-07  0.2465E-06  0.3886E-09  0.0000E+00  0.0000E+00  0.0000E+00  0.0000E+00  0.0000E+00
    -14.916  0.2300E-03  0.2552E-04  0.1502E-03  0.2369E-06  0.0000E+00  0.0000E+00  0.0000E+00  0.0000E+00  0.0000E+00
    -14.798  0.1077E-01  0.1195E-02  0.7037E-02  0.1109E-04  0.0000E+00  0.0000E+00  0.0000E+00  0.0000E+00  0.0000E+00
    -14.680  0.4667E-01  0.5179E-02  0.3049E-01  0.4807E-04  0.0000E+00  0.0000E+00  0.0000E+00  0.0000E+00  0.0000E+00
    -14.562  0.2181E-01  0.2420E-02  0.1425E-01  0.2246E-04  0.0000E+00  0.0000E+00  0.0000E+00  0.0000E+00  0.0000E+00
    -14.445  0.1049E-02  0.1267E-03  0.6572E-03  0.1046E-05  0.0000E+00  0.0000E+00  0.0000E+00  0.0000E+00  0.0000E+00
    -14.327  0.1095E-01  0.3756E-02  0.1924E-03  0.2833E-05  0.0000E+00  0.0000E+00  0.0000E+00  0.0000E+00  0.0000E+00
    -14.209  0.2202E+00  0.7559E-01  0.3824E-02  0.5695E-04  0.0000E+00  0.0000E+00  0.0000E+00  0.0000E+00  0.0000E+00
    -14.091  0.4397E+00  0.1509E+00  0.7636E-02  0.1137E-03  0.0000E+00  0.0000E+00  0.0000E+00  0.0000E+00  0.0000E+00
    -13.973  0.9453E-01  0.3245E-01  0.1642E-02  0.2444E-04  0.0000E+00  0.0000E+00  0.0000E+00  0.0000E+00  0.0000E+00
    -13.855  0.1867E-02  0.6410E-03  0.3243E-04  0.4829E-06  0.0000E+00  0.0000E+00  0.0000E+00  0.0000E+00  0.0000E+00
    -13.737  0.2822E-05  0.9688E-06  0.4903E-07  0.7299E-09  0.0000E+00  0.0000E+00  0.0000E+00  0.0000E+00  0.0000E+00
    -13.619  0.2986E-06  0.2269E-06  0.1252E-06  0.6095E-09  0.0000E+00  0.0000E+00  0.0000E+00  0.0000E+00  0.0000E+00
    -13.501  0.1961E-03  0.1491E-03  0.8232E-04  0.4006E-06  0.0000E+00  0.0000E+00  0.0000E+00  0.0000E+00  0.0000E+00
    -13.383  0.9862E-02  0.7500E-02  0.4141E-02  0.2015E-04  0.0000E+00  0.0000E+00  0.0000E+00  0.0000E+00  0.0000E+00
    -13.265  0.4561E-01  0.3469E-01  0.1915E-01  0.9319E-04  0.0000E+00  0.0000E+00  0.0000E+00  0.0000E+00  0.0000E+00