       N       E                     dE             d eps       ncg     rms          rms(c)
RMM:   1     0.801895991272E+03    0.80190E+03   -0.10820E+04    36   0.782E+02
RMM:   2     0.431798109130E+03   -0.37010E+03   -0.43045E+03    36   0.176E+02
RMM:   3     0.256328204026E+03   -0.17547E+03   -0.27613E+03    36   0.140E+02
RMM:   4     0.859408693524E+02   -0.17039E+03   -0.18746E+03    36   0.143E+02
RMM:   5    -0.188204392204E+02   -0.10476E+03   -0.96071E+02    36   0.114E+02
RMM:   6    -0.730972982686E+02   -0.54277E+02   -0.48304E+02    36   0.828E+01
RMM:   7    -0.100423674906E+03   -0.27326E+02   -0.22244E+02    36   0.522E+01
RMM:   8    -0.106885089717E+03   -0.64614E+01   -0.60814E+01    36   0.300E+01
RMM:   9    -0.108612414341E+03   -0.17273E+01   -0.16488E+01    36   0.165E+01
RMM:  10    -0.109179393537E+03   -0.56698E+00   -0.52532E+00    36   0.935E+00
RMM:  11    -0.109365379529E+03   -0.18599E+00   -0.17988E+00    36   0.540E+00
RMM:  12    -0.109433057517E+03   -0.67678E-01   -0.64745E-01    36   0.324E+00
RMM:  13    -0.109457827104E+03   -0.24770E-01   -0.24361E-01    36   0.196E+00
RMM:  14    -0.109467640952E+03   -0.98138E-02   -0.95105E-02    36   0.122E+00
RMM:  15    -0.109472832879E+03   -0.51919E-02   -0.51466E-02    78   0.766E-01
RMM:  16    -0.109474197738E+03   -0.13649E-02   -0.13459E-02    80   0.339E-01
RMM:  17    -0.109474379948E+03   -0.18221E-03   -0.17330E-03    76   0.117E-01
RMM:  18    -0.109474393609E+03   -0.13661E-04   -0.13039E-04    62   0.340E-02
RMM:  19    -0.109474394490E+03   -0.88143E-06   -0.81600E-06    50   0.118E-02
RMM:  20    -0.109474394669E+03   -0.17922E-06   -0.17820E-06    43   0.676E-03    0.166E+01
RMM:  21    -0.101681151617E+03    0.77932E+01   -0.13637E+01   120   0.134E+01    0.895E+00
RMM:  22    -0.998547732738E+02    0.18264E+01   -0.30936E+00   120   0.599E+00    0.388E+00
RMM:  23    -0.995733368664E+02    0.28144E+00   -0.39172E-01   120   0.226E+00    0.110E+00
RMM:  24    -0.995399896300E+02    0.33347E-01   -0.23365E-02   107   0.717E-01    0.323E-01
RMM:  25    -0.995338913338E+02    0.60983E-02   -0.44669E-03    93   0.264E-01    0.175E-01
RMM:  26    -0.995337579260E+02    0.13341E-03   -0.95629E-03   100   0.307E-01    0.925E-02
RMM:  27    -0.995384155790E+02   -0.46577E-02   -0.17749E-03    82   0.143E-01    0.515E-02
RMM:  28    -0.995447065237E+02   -0.62909E-02   -0.76304E-04    75   0.957E-02    0.278E-02
RMM:  29    -0.995489786609E+02   -0.42721E-02   -0.47004E-04    70   0.719E-02    0.173E-02
RMM:  30    -0.995515050108E+02   -0.25263E-02   -0.42923E-04    72   0.593E-02    0.970E-03
RMM:  31    -0.995521714551E+02   -0.66644E-03   -0.13102E-04    64   0.350E-02    0.657E-03
RMM:  32    -0.995522965237E+02   -0.12507E-03   -0.33402E-05    55   0.166E-02    0.257E-03
RMM:  33    -0.995523945094E+02   -0.97986E-04   -0.18424E-05    52   0.123E-02    0.215E-03
RMM:  34    -0.995524227322E+02   -0.28223E-04   -0.52007E-06    42   0.677E-03    0.931E-04
RMM:  35    -0.995524432780E+02   -0.20546E-04   -0.37069E-06    41   0.547E-03    0.574E-04
RMM:  36    -0.995524452127E+02   -0.19347E-05   -0.79756E-07    31   0.334E-03
   1 F= -.99552445E+02 E0= -.99552445E+02  d E =-.995524E+02
       N       E                     dE             d eps       ncg     rms          rms(c)
RMM:   1    -0.995529077430E+02   -0.46447E-03   -0.41646E+00    72   0.107E+01    0.500E-01
RMM:   2    -0.995651349471E+02   -0.12227E-01   -0.18956E-01    72   0.298E+00    0.240E-01
RMM:   3    -0.995672429308E+02   -0.21080E-02   -0.27662E-02    74   0.100E+00    0.166E-01
RMM:   4    -0.995668924673E+02    0.35046E-03   -0.36606E-03    73   0.340E-01    0.847E-02
RMM:   5    -0.995668059253E+02    0.86542E-04   -0.14663E-03    72   0.182E-01    0.384E-02
RMM:   6    -0.995668584211E+02   -0.52496E-04   -0.58469E-04    73   0.111E-01    0.235E-02
RMM:   7    -0.995668841472E+02   -0.25726E-04   -0.11182E-04    70   0.448E-02    0.195E-02
RMM:   8    -0.995669205419E+02   -0.36395E-04   -0.12267E-04    68   0.468E-02    0.126E-02
RMM:   9    -0.995669794807E+02   -0.58939E-04   -0.24777E-05    55   0.217E-02    0.372E-03
RMM:  10    -0.995670274067E+02   -0.47926E-04   -0.68125E-06    48   0.103E-02    0.207E-03
RMM:  11    -0.995670867281E+02   -0.59321E-04   -0.92881E-06    48   0.896E-03    0.177E-03
RMM:  12    -0.995671088559E+02   -0.22128E-04   -0.37085E-06    41   0.554E-03    0.140E-03
RMM:  13    -0.995671188201E+02   -0.99641E-05   -0.26392E-06    46   0.546E-03
   2 F= -.99567119E+02 E0= -.99567119E+02  d E =-.146736E-01
       N       E                     dE             d eps       ncg     rms          rms(c)
RMM:   1    -0.995682263760E+02   -0.11175E-02   -0.30687E-01    72   0.291E+00    0.128E-01
RMM:   2    -0.995692164633E+02   -0.99009E-03   -0.13889E-02    72   0.815E-01    0.657E-02
RMM:   3    -0.995693789084E+02   -0.16245E-03   -0.20269E-03    74   0.274E-01    0.429E-02
RMM:   4    -0.995693568746E+02    0.22034E-04   -0.26660E-04    72   0.924E-02    0.198E-02
RMM:   5    -0.995693472941E+02    0.95805E-05   -0.92635E-05    70   0.474E-02    0.883E-03
RMM:   6    -0.995693502466E+02   -0.29525E-05   -0.38300E-05    60   0.279E-02
   3 F= -.99569350E+02 E0= -.99569350E+02  d E =-.169050E-01
       N       E                     dE             d eps       ncg     rms          rms(c)
RMM:   1    -0.995715995063E+02   -0.22522E-02   -0.45993E-01    72   0.371E+00    0.149E-01
RMM:   2    -0.995732600973E+02   -0.16606E-02   -0.21482E-02    72   0.963E-01    0.877E-02
RMM:   3    -0.995735396128E+02   -0.27952E-03   -0.33893E-03    75   0.325E-01    0.759E-02
RMM:   4    -0.995735000180E+02    0.39595E-04   -0.44715E-04    73   0.116E-01    0.441E-02
RMM:   5    -0.995735273504E+02   -0.27332E-04   -0.33704E-04    72   0.785E-02    0.178E-02
RMM:   6    -0.995735247022E+02    0.26482E-05   -0.91475E-05    70   0.449E-02
   4 F= -.99573525E+02 E0= -.99573525E+02  d E =-.417446E-02
       N       E                     dE             d eps       ncg     rms          rms(c)
RMM:   1    -0.995736944637E+02   -0.16711E-03   -0.38267E-02    72   0.107E+00    0.423E-02
RMM:   2    -0.995738322725E+02   -0.13781E-03   -0.17636E-03    72   0.277E-01    0.272E-02
RMM:   3    -0.995738552124E+02   -0.22940E-04   -0.25970E-04    72   0.941E-02    0.208E-02
RMM:   4    -0.995738535534E+02    0.16590E-05   -0.46205E-05    64   0.367E-02    0.759E-03
RMM:   5    -0.995738550481E+02   -0.14948E-05   -0.13747E-05    48   0.182E-02    0.466E-03
RMM:   6    -0.995738559588E+02   -0.91066E-06   -0.38160E-06    48   0.919E-03
   5 F= -.99573856E+02 E0= -.99573856E+02  d E =-.450571E-02
       N       E                     dE             d eps       ncg     rms          rms(c)
RMM:   1    -0.995750063029E+02   -0.11513E-02   -0.17081E-01    72   0.226E+00    0.983E-02
RMM:   2    -0.995755569897E+02   -0.55069E-03   -0.74568E-03    72   0.540E-01    0.602E-02
RMM:   3    -0.995756184213E+02   -0.61432E-04   -0.11982E-03    75   0.184E-01    0.490E-02
RMM:   4    -0.995755963918E+02    0.22030E-04   -0.15155E-04    72   0.665E-02    0.282E-02
RMM:   5    -0.995755981136E+02   -0.17218E-05   -0.15497E-04    71   0.492E-02    0.108E-02
RMM:   6    -0.995755963610E+02    0.17526E-05   -0.31952E-05    59   0.261E-02
   6 F= -.99575596E+02 E0= -.99575596E+02  d E =-.174040E-02
       N       E                     dE             d eps       ncg     rms          rms(c)
RMM:   1    -0.995756101558E+02   -0.12042E-04   -0.13301E-03    72   0.198E-01    0.935E-03
RMM:   2    -0.995756155596E+02   -0.54039E-05   -0.61561E-05    68   0.481E-02    0.661E-03
RMM:   3    -0.995756166358E+02   -0.10762E-05   -0.10198E-05    48   0.170E-02    0.486E-03
RMM:   4    -0.995756172785E+02   -0.64266E-06   -0.23770E-06    48   0.750E-03    0.164E-03
RMM:   5    -0.995756179751E+02   -0.69658E-06   -0.61540E-07    39   0.392E-03    0.812E-04
RMM:   6    -0.995756185970E+02   -0.62197E-06   -0.91409E-08    27   0.271E-03
   7 F= -.99575619E+02 E0= -.99575619E+02  d E =-.176264E-02
       N       E                     dE             d eps       ncg     rms          rms(c)
RMM:   1    -0.995759296556E+02   -0.31168E-03   -0.59594E-02    72   0.135E+00    0.623E-02
RMM:   2    -0.995761328036E+02   -0.20315E-03   -0.28143E-03    72   0.337E-01    0.374E-02
RMM:   3    -0.995761610018E+02   -0.28198E-04   -0.46893E-04    74   0.115E-01    0.260E-02
RMM:   4    -0.995761529006E+02    0.81012E-05   -0.74060E-05    71   0.467E-02    0.901E-03
RMM:   5    -0.995761550369E+02   -0.21363E-05   -0.25001E-05    54   0.244E-02    0.604E-03
RMM:   6    -0.995761563406E+02   -0.13037E-05   -0.54594E-06    48   0.113E-02
   8 F= -.99576156E+02 E0= -.99576156E+02  d E =-.537744E-03
       N       E                     dE             d eps       ncg     rms          rms(c)
RMM:   1    -0.995761652602E+02   -0.10223E-04   -0.12121E-03    72   0.191E-01    0.902E-03
RMM:   2    -0.995761702064E+02   -0.49461E-05   -0.54997E-05    66   0.473E-02    0.559E-03
RMM:   3    -0.995761712548E+02   -0.10485E-05   -0.71927E-06    47   0.145E-02    0.345E-03
RMM:   4    -0.995761718078E+02   -0.55295E-06   -0.16680E-06    46   0.632E-03    0.906E-04
RMM:   5    -0.995761719924E+02   -0.18465E-06   -0.13466E-07    26   0.284E-03    0.639E-04
RMM:   6    -0.995761722485E+02   -0.25604E-06   -0.81451E-09    23   0.258E-03
   9 F= -.99576172E+02 E0= -.99576172E+02  d E =-.553651E-03
       N       E                     dE             d eps       ncg     rms          rms(c)
RMM:   1    -0.995763207633E+02   -0.14877E-03   -0.10790E-02    72   0.572E-01    0.242E-02
RMM:   2    -0.995763578139E+02   -0.37051E-04   -0.50429E-04    72   0.153E-01    0.143E-02
RMM:   3    -0.995763624655E+02   -0.46516E-05   -0.74588E-05    71   0.516E-02    0.858E-03
RMM:   4    -0.995763620213E+02    0.44418E-06   -0.12575E-05    49   0.198E-02    0.313E-03
RMM:   5    -0.995763620972E+02   -0.75916E-07   -0.26859E-06    46   0.884E-03    0.133E-03
RMM:   6    -0.995763622428E+02   -0.14563E-06   -0.74266E-07    42   0.483E-03
  10 F= -.99576362E+02 E0= -.99576362E+02  d E =-.189994E-03
