PROCAR lm decomposed
# of k-points:    1         # of bands:   36         # of ions:   16

 k-point     1 :    0.00000000 0.00000000 0.00000000     weight = 1.00000000

band     1 # energy  -30.05522069 # occ.  2.00000000
 
ion      s     py     pz     px    dxy    dyz    dz2    dxz  x2-y2    tot
    1  0.000  0.000  0.000  0.000  0.000  0.000  0.000  0.000  0.000  0.000
    2  0.001  0.000  0.000  0.000  0.000  0.000  0.000  0.000  0.000  0.001
    3  0.046  0.006  0.023  0.000  0.000  0.000  0.000  0.000  0.000  0.074
    4  0.002  0.000  0.000  0.000  0.000  0.000  0.000  0.000  0.000  0.002
    5  0.000  0.000  0.000  0.000  0.000  0.000  0.000  0.000  0.000  0.000
    6  0.000  0.000  0.000  0.000  0.000  0.000  0.000  0.000  0.000  0.000
    7  0.000  0.000  0.000  0.000  0.000  0.000  0.000  0.000  0.000  0.000
    8  0.785  0.006  0.019  0.000  0.000  0.000  0.000  0.000  0.000  0.810
    9  0.000  0.000  0.000  0.000  0.000  0.000  0.000  0.000  0.000  0.000
   10  0.000  0.000  0.000  0.000  0.000  0.000  0.000  0.000  0.000  0.000
   11  0.000  0.000  0.000  0.000  0.000  0.000  0.000  0.000  0.000  0.000
   12  0.000  0.000  0.000  0.000  0.000  0.000  0.000  0.000  0.000  0.001
   13  0.000  0.000  0.000  0.000  0.000  0.000  0.000  0.000  0.000  0.000
   14  0.000  0.000  0.000  0.000  0.000  0.000  0.000  0.000  0.000  0.000
   15  0.000  0.000  0.000  0.000  0.000  0.000  0.000  0.000  0.000  0.000
   16  0.002  0.000  0.000  0.000  0.000  0.000  0.000  0.000  0.000  0.002
tot    0.836  0.012  0.042  0.000  0.000  0.000  0.000  0.000  0.000  0.890
 
band     2 # energy  -26.08607025 # occ.  2.00000000
 
ion      s     py     pz     px    dxy    dyz    dz2    dxz  x2-y2    tot
    1  0.000  0.000  0.000  0.000  0.000  0.000  0.000  0.000  0.000  0.000
    2  0.000  0.000  0.000  0.000  0.000  0.000  0.000  0.000  0.000  0.000
    3  0.001  0.002  0.000  0.000  0.000  0.000  0.000  0.000  0.000  0.004
    4  0.081  0.006  0.027  0.000  0.000  0.000  0.000  0.000  0.000  0.114
    5  0.003  0.000  0.001  0.000  0.000  0.000  0.000  0.000  0.000  0.004
    6  0.000  0.000  0.000  0.000  0.000  0.000  0.000  0.000  0.000  0.000
    7  0.000  0.000  0.000  0.000  0.000  0.000  0.000  0.000  0.000  0.000
    8  0.007  0.000  0.000  0.000  0.000  0.000  0.000  0.000  0.000  0.007
    9  0.000  0.000  0.000  0.000  0.000  0.000  0.000  0.000  0.000  0.000
   10  0.000  0.000  0.000  0.000  0.000  0.000  0.000  0.000  0.000  0.000
   11  0.000  0.000  0.000  0.000  0.000  0.000  0.000  0.000  0.000  0.000
   12  0.077  0.006  0.011  0.000  0.000  0.000  0.000  0.000  0.000  0.094
   13  0.000  0.000  0.000  0.000  0.000  0.000  0.000  0.000  0.000  0.000
   14  0.000  0.000  0.000  0.000  0.000  0.000  0.000  0.000  0.000  0.000
   15  0.000  0.000  0.000  0.000  0.000  0.000  0.000  0.000  0.000  0.000
   16  0.644  0.036  0.003  0.000  0.000  0.000  0.000  0.000  0.000  0.683
tot    0.814  0.051  0.042  0.000  0.000  0.000  0.000  0.000  0.000  0.907
 
band     3 # energy  -20.76001508 # occ.  2.00000000
 
ion      s     py     pz     px    dxy    dyz    dz2    dxz  x2-y2    tot
    1  0.019  0.003  0.000  0.000  0.000  0.000  0.000  0.000  0.000  0.021
    2  0.135  0.007  0.000  0.000  0.000  0.000  0.000  0.000  0.000  0.142
    3  0.092  0.002  0.016  0.000  0.000  0.000  0.000  0.000  0.000  0.110
    4  0.059  0.005  0.015  0.000  0.000  0.000  0.000  0.000  0.000  0.079
    5  0.075  0.009  0.000  0.000  0.000  0.000  0.000  0.000  0.000  0.084
    6  0.080  0.002  0.006  0.000  0.000  0.000  0.000  0.000  0.000  0.088
    7  0.097  0.001  0.008  0.000  0.000  0.000  0.000  0.000  0.000  0.106
    8  0.011  0.000  0.004  0.000  0.000  0.000  0.000  0.000  0.000  0.015
    9  0.001  0.000  0.000  0.000  0.000  0.000  0.000  0.000  0.000  0.002
   10  0.001  0.000  0.000  0.000  0.000  0.000  0.000  0.000  0.000  0.002
   11  0.002  0.000  0.000  0.000  0.000  0.000  0.000  0.000  0.000  0.002
   12  0.005  0.000  0.000  0.000  0.000  0.000  0.000  0.000  0.000  0.006
   13  0.003  0.000  0.000  0.000  0.000  0.000  0.000  0.000  0.000  0.003
   14  0.004  0.000  0.000  0.000  0.000  0.000  0.000  0.000  0.000  0.004
   15  0.005  0.000  0.000  0.000  0.000  0.000  0.000  0.000  0.000  0.005
   16  0.016  0.000  0.003  0.000  0.000  0.000  0.000  0.000  0.000  0.020
tot    0.606  0.030  0.053  0.000  0.000  0.000  0.000  0.000  0.000  0.689
 
band     4 # energy  -18.62987017 # occ.  2.00000000
 
ion      s     py     pz     px    dxy    dyz    dz2    dxz  x2-y2    tot
    1  0.129  0.006  0.000  0.000  0.000  0.000  0.000  0.000  0.000  0.134
    2  0.142  0.005  0.000  0.000  0.000  0.000  0.000  0.000  0.000  0.147
    3  0.007  0.018  0.005  0.000  0.000  0.000  0.000  0.000  0.000  0.029
    4  0.052  0.002  0.013  0.000  0.000  0.000  0.000  0.000  0.000  0.066
    5  0.137  0.004  0.000  0.000  0.000  0.000  0.000  0.000  0.000  0.141
    6  0.054  0.003  0.006  0.000  0.000  0.000  0.000  0.000  0.000  0.063
    7  0.007  0.013  0.003  0.000  0.000  0.000  0.000  0.000  0.000  0.023
    8  0.003  0.000  0.003  0.000  0.000  0.000  0.000  0.000  0.000  0.006
    9  0.014  0.000  0.000  0.001  0.000  0.000  0.000  0.000  0.000  0.016
   10  0.014  0.000  0.000  0.001  0.000  0.000  0.000  0.000  0.000  0.016
   11  0.014  0.000  0.001  0.000  0.000  0.000  0.000  0.000  0.000  0.016
   12  0.007  0.001  0.001  0.000  0.000  0.000  0.000  0.000  0.000  0.008
   13  0.012  0.001  0.000  0.000  0.000  0.000  0.000  0.000  0.000  0.013
   14  0.005  0.000  0.000  0.000  0.000  0.000  0.000  0.000  0.000  0.005
   15  0.001  0.000  0.000  0.000  0.000  0.000  0.000  0.000  0.000  0.002
   16  0.010  0.001  0.010  0.000  0.000  0.000  0.000  0.000  0.000  0.021
tot    0.607  0.054  0.043  0.002  0.000  0.000  0.000  0.000  0.000  0.706
 
band     5 # energy  -17.66221121 # occ.  2.00000000
 
ion      s     py     pz     px    dxy    dyz    dz2    dxz  x2-y2    tot
    1  0.000  0.000  0.000  0.000  0.000  0.000  0.000  0.000  0.000  0.001
    2  0.000  0.000  0.025  0.000  0.000  0.000  0.000  0.000  0.000  0.026
    3  0.133  0.011  0.000  0.000  0.000  0.000  0.000  0.000  0.000  0.144
    4  0.104  0.016  0.001  0.000  0.000  0.000  0.000  0.000  0.000  0.121
    5  0.001  0.000  0.023  0.000  0.000  0.000  0.000  0.000  0.000  0.024
    6  0.143  0.006  0.000  0.000  0.000  0.000  0.000  0.000  0.000  0.149
    7  0.133  0.007  0.000  0.000  0.000  0.000  0.000  0.000  0.000  0.140
    8  0.020  0.008  0.019  0.000  0.000  0.000  0.000  0.000  0.000  0.047
    9  0.000  0.000  0.000  0.000  0.000  0.000  0.000  0.000  0.000  0.000
   10  0.000  0.000  0.000  0.000  0.000  0.000  0.000  0.000  0.000  0.000
   11  0.000  0.000  0.000  0.000  0.000  0.000  0.000  0.000  0.000  0.000
   12  0.011  0.001  0.001  0.000  0.000  0.000  0.000  0.000  0.000  0.013
   13  0.000  0.000  0.000  0.000  0.000  0.000  0.000  0.000  0.000  0.000
   14  0.018  0.001  0.001  0.000  0.000  0.000  0.000  0.000  0.000  0.020
   15  0.017  0.001  0.001  0.000  0.000  0.000  0.000  0.000  0.000  0.019
   16  0.021  0.000  0.019  0.000  0.000  0.000  0.000  0.000  0.000  0.041
tot    0.601  0.051  0.093  0.000  0.000  0.000  0.000  0.000  0.000  0.745
 
band     6 # energy  -16.50951806 # occ.  2.00000000
 
ion      s     py     pz     px    dxy    dyz    dz2    dxz  x2-y2    tot
    1  0.209  0.000  0.000  0.000  0.000  0.000  0.000  0.000  0.000  0.210
    2  0.004  0.050  0.000  0.000  0.000  0.000  0.000  0.000  0.000  0.055
    3  0.052  0.001  0.002  0.000  0.000  0.000  0.000  0.000  0.000  0.055
    4  0.007  0.035  0.005  0.000  0.000  0.000  0.000  0.000  0.000  0.047
    5  0.097  0.000  0.002  0.000  0.000  0.000  0.000  0.000  0.000  0.099
    6  0.000  0.018  0.004  0.000  0.000  0.000  0.000  0.000  0.000  0.022
    7  0.052  0.001  0.001  0.000  0.000  0.000  0.000  0.000  0.000  0.054
    8  0.005  0.006  0.007  0.000  0.000  0.000  0.000  0.000  0.000  0.019
    9  0.036  0.000  0.001  0.002  0.000  0.000  0.000  0.000  0.000  0.039
   10  0.036  0.000  0.001  0.002  0.000  0.000  0.000  0.000  0.000  0.039
   11  0.035  0.000  0.003  0.000  0.000  0.000  0.000  0.000  0.000  0.038
   12  0.006  0.000  0.000  0.000  0.000  0.000  0.000  0.000  0.000  0.007
   13  0.020  0.002  0.000  0.000  0.000  0.000  0.000  0.000  0.000  0.022
   14  0.000  0.000  0.000  0.000  0.000  0.000  0.000  0.000  0.000  0.000
   15  0.005  0.000  0.000  0.000  0.000  0.000  0.000  0.000  0.000  0.005
   16  0.000  0.003  0.015  0.000  0.000  0.000  0.000  0.000  0.000  0.018
tot    0.565  0.119  0.042  0.005  0.000  0.000  0.000  0.000  0.000  0.730
 
band     7 # energy  -14.72090637 # occ.  2.00000000
 
ion      s     py     pz     px    dxy    dyz    dz2    dxz  x2-y2    tot
    1  0.005  0.001  0.003  0.000  0.000  0.000  0.000  0.000  0.000  0.008
    2  0.005  0.001  0.050  0.000  0.000  0.000  0.000  0.000  0.000  0.056
    3  0.044  0.008  0.001  0.000  0.000  0.000  0.000  0.000  0.000  0.053
    4  0.050  0.031  0.001  0.000  0.000  0.000  0.000  0.000  0.000  0.082
    5  0.006  0.000  0.056  0.000  0.000  0.000  0.000  0.000  0.000  0.062
    6  0.067  0.022  0.001  0.000  0.000  0.000  0.000  0.000  0.000  0.090
    7  0.073  0.020  0.001  0.000  0.000  0.000  0.000  0.000  0.000  0.093
    8  0.015  0.010  0.056  0.000  0.000  0.000  0.000  0.000  0.000  0.081
    9  0.003  0.000  0.000  0.000  0.000  0.000  0.000  0.000  0.000  0.003
   10  0.003  0.000  0.000  0.000  0.000  0.000  0.000  0.000  0.000  0.003
   11  0.000  0.000  0.000  0.000  0.000  0.000  0.000  0.000  0.000  0.000
   12  0.049  0.004  0.002  0.000  0.000  0.000  0.000  0.000  0.000  0.056
   13  0.001  0.000  0.000  0.000  0.000  0.000  0.000  0.000  0.000  0.001
   14  0.021  0.000  0.002  0.000  0.000  0.000  0.000  0.000  0.000  0.023
   15  0.023  0.000  0.002  0.000  0.000  0.000  0.000  0.000  0.000  0.025
   16  0.002  0.004  0.142  0.000  0.000  0.000  0.000  0.000  0.000  0.149
tot    0.365  0.101  0.317  0.001  0.000  0.000  0.000  0.000  0.000  0.784
 
band     8 # energy  -14.17185497 # occ.  2.00000000
 
ion      s     py     pz     px    dxy    dyz    dz2    dxz  x2-y2    tot
    1  0.045  0.016  0.001  0.000  0.000  0.000  0.000  0.000  0.000  0.062
    2  0.083  0.010  0.010  0.000  0.000  0.000  0.000  0.000  0.000  0.104
    3  0.003  0.069  0.059  0.000  0.000  0.000  0.000  0.000  0.000  0.131
    4  0.030  0.040  0.021  0.000  0.000  0.000  0.000  0.000  0.000  0.091
    5  0.049  0.003  0.001  0.000  0.000  0.000  0.000  0.000  0.000  0.053
    6  0.022  0.011  0.015  0.000  0.000  0.000  0.000  0.000  0.000  0.048
    7  0.015  0.011  0.026  0.000  0.000  0.000  0.000  0.000  0.000  0.052
    8  0.004  0.050  0.004  0.000  0.000  0.000  0.000  0.000  0.000  0.058
    9  0.013  0.000  0.000  0.001  0.000  0.000  0.000  0.000  0.000  0.014
   10  0.013  0.000  0.000  0.001  0.000  0.000  0.000  0.000  0.000  0.014
   11  0.021  0.000  0.002  0.000  0.000  0.000  0.000  0.000  0.000  0.023
   12  0.002  0.001  0.000  0.000  0.000  0.000  0.000  0.000  0.000  0.003
   13  0.020  0.002  0.000  0.000  0.000  0.000  0.000  0.000  0.000  0.021
   14  0.011  0.001  0.000  0.000  0.000  0.000  0.000  0.000  0.000  0.012
   15  0.013  0.001  0.000  0.000  0.000  0.000  0.000  0.000  0.000  0.014
   16  0.014  0.014  0.014  0.000  0.000  0.000  0.000  0.000  0.000  0.041
tot    0.358  0.227  0.154  0.002  0.000  0.000  0.000  0.000  0.000  0.741
 
band     9 # energy  -13.30227278 # occ.  2.00000000
 
ion      s     py     pz     px    dxy    dyz    dz2    dxz  x2-y2    tot
    1  0.005  0.004  0.002  0.000  0.000  0.000  0.000  0.000  0.000  0.010
    2  0.001  0.002  0.015  0.000  0.000  0.000  0.000  0.000  0.000  0.018
    3  0.004  0.086  0.013  0.000  0.000  0.000  0.000  0.000  0.000  0.103
    4  0.003  0.057  0.041  0.000  0.000  0.000  0.000  0.000  0.000  0.101
    5  0.002  0.016  0.000  0.000  0.000  0.000  0.000  0.000  0.000  0.018
    6  0.013  0.000  0.018  0.000  0.000  0.000  0.000  0.000  0.000  0.031
    7  0.000  0.003  0.009  0.000  0.000  0.000  0.000  0.000  0.000  0.013
    8  0.012  0.002  0.190  0.000  0.000  0.000  0.000  0.000  0.000  0.205
    9  0.001  0.000  0.000  0.000  0.000  0.000  0.000  0.000  0.000  0.001
   10  0.001  0.000  0.000  0.000  0.000  0.000  0.000  0.000  0.000  0.001
   11  0.006  0.000  0.000  0.000  0.000  0.000  0.000  0.000  0.000  0.006
   12  0.064  0.004  0.002  0.000  0.000  0.000  0.000  0.000  0.000  0.070
   13  0.003  0.000  0.000  0.000  0.000  0.000  0.000  0.000  0.000  0.003
   14  0.017  0.000  0.001  0.000  0.000  0.000  0.000  0.000  0.000  0.018
   15  0.002  0.000  0.000  0.000  0.000  0.000  0.000  0.000  0.000  0.002
   16  0.002  0.014  0.177  0.000  0.000  0.000  0.000  0.000  0.000  0.193
tot    0.136  0.188  0.469  0.001  0.000  0.000  0.000  0.000  0.000  0.794
 
band    10 # energy  -12.27942777 # occ.  2.00000000
 
ion      s     py     pz     px    dxy    dyz    dz2    dxz  x2-y2    tot
    1  0.001  0.002  0.012  0.000  0.000  0.000  0.000  0.000  0.000  0.016
    2  0.000  0.007  0.054  0.000  0.000  0.000  0.000  0.000  0.000  0.061
    3  0.000  0.000  0.075  0.000  0.000  0.000  0.000  0.000  0.000  0.076
    4  0.004  0.000  0.006  0.000  0.000  0.000  0.000  0.000  0.000  0.010
    5  0.051  0.023  0.001  0.000  0.000  0.000  0.000  0.000  0.000  0.075
    6  0.034  0.006  0.005  0.000  0.000  0.000  0.000  0.000  0.000  0.045
    7  0.018  0.063  0.001  0.000  0.000  0.000  0.000  0.000  0.000  0.083
    8  0.009  0.105  0.098  0.000  0.000  0.000  0.000  0.000  0.000  0.212
    9  0.005  0.000  0.000  0.000  0.000  0.000  0.000  0.000  0.000  0.005
   10  0.005  0.000  0.000  0.000  0.000  0.000  0.000  0.000  0.000  0.005
   11  0.002  0.000  0.000  0.000  0.000  0.000  0.000  0.000  0.000  0.003
   12  0.017  0.001  0.000  0.000  0.000  0.000  0.000  0.000  0.000  0.018
   13  0.050  0.003  0.000  0.000  0.000  0.000  0.000  0.000  0.000  0.053
   14  0.013  0.000  0.000  0.000  0.000  0.000  0.000  0.000  0.000  0.013
   15  0.033  0.000  0.002  0.000  0.000  0.000  0.000  0.000  0.000  0.036
   16  0.001  0.002  0.051  0.000  0.000  0.000  0.000  0.000  0.000  0.054
tot    0.242  0.213  0.307  0.001  0.000  0.000  0.000  0.000  0.000  0.764
 
band    11 # energy  -11.33038271 # occ.  2.00000000
 
ion      s     py     pz     px    dxy    dyz    dz2    dxz  x2-y2    tot
    1  0.002  0.028  0.007  0.000  0.000  0.000  0.000  0.000  0.000  0.037
    2  0.039  0.005  0.010  0.000  0.000  0.000  0.000  0.000  0.000  0.054
    3  0.000  0.018  0.001  0.000  0.000  0.000  0.000  0.000  0.000  0.018
    4  0.000  0.015  0.081  0.000  0.000  0.000  0.000  0.000  0.000  0.096
    5  0.001  0.024  0.067  0.000  0.000  0.000  0.000  0.000  0.000  0.092
    6  0.007  0.095  0.004  0.000  0.000  0.000  0.000  0.000  0.000  0.106
    7  0.016  0.035  0.011  0.000  0.000  0.000  0.000  0.000  0.000  0.062
    8  0.001  0.009  0.090  0.000  0.000  0.000  0.000  0.000  0.000  0.101
    9  0.010  0.000  0.000  0.001  0.000  0.000  0.000  0.000  0.000  0.011
   10  0.010  0.000  0.000  0.001  0.000  0.000  0.000  0.000  0.000  0.011
   11  0.000  0.000  0.000  0.000  0.000  0.000  0.000  0.000  0.000  0.001
   12  0.003  0.002  0.000  0.000  0.000  0.000  0.000  0.000  0.000  0.005
   13  0.009  0.000  0.001  0.000  0.000  0.000  0.000  0.000  0.000  0.010
   14  0.041  0.000  0.003  0.000  0.000  0.000  0.000  0.000  0.000  0.043
   15  0.005  0.001  0.000  0.000  0.000  0.000  0.000  0.000  0.000  0.006
   16  0.006  0.032  0.044  0.000  0.000  0.000  0.000  0.000  0.000  0.082
tot    0.152  0.264  0.318  0.002  0.000  0.000  0.000  0.000  0.000  0.736
 
band    12 # energy  -10.77790172 # occ.  2.00000000
 
ion      s     py     pz     px    dxy    dyz    dz2    dxz  x2-y2    tot
    1  0.000  0.000  0.000  0.021  0.000  0.000  0.000  0.000  0.000  0.021
    2  0.000  0.000  0.000  0.026  0.000  0.000  0.000  0.000  0.000  0.026
    3  0.000  0.000  0.000  0.093  0.000  0.000  0.000  0.000  0.000  0.093
    4  0.000  0.000  0.000  0.036  0.000  0.000  0.000  0.000  0.000  0.036
    5  0.000  0.000  0.000  0.006  0.000  0.000  0.000  0.000  0.000  0.006
    6  0.000  0.000  0.000  0.003  0.000  0.000  0.000  0.000  0.000  0.003
    7  0.000  0.000  0.000  0.005  0.000  0.000  0.000  0.000  0.000  0.005
    8  0.000  0.000  0.001  0.398  0.000  0.000  0.000  0.000  0.000  0.399
    9  0.009  0.000  0.000  0.000  0.000  0.000  0.000  0.000  0.000  0.010
   10  0.009  0.000  0.000  0.000  0.000  0.000  0.000  0.000  0.000  0.010
   11  0.000  0.000  0.000  0.000  0.000  0.000  0.000  0.000  0.000  0.000
   12  0.000  0.000  0.000  0.000  0.000  0.000  0.000  0.000  0.000  0.000
   13  0.000  0.000  0.000  0.000  0.000  0.000  0.000  0.000  0.000  0.000
   14  0.000  0.000  0.000  0.000  0.000  0.000  0.000  0.000  0.000  0.000
   15  0.000  0.000  0.000  0.000  0.000  0.000  0.000  0.000  0.000  0.000
   16  0.000  0.000  0.000  0.026  0.000  0.000  0.000  0.000  0.000  0.026
tot    0.019  0.001  0.002  0.614  0.000  0.000  0.000  0.000  0.000  0.635
 
band    13 # energy  -10.55474993 # occ.  2.00000000
 
ion      s     py     pz     px    dxy    dyz    dz2    dxz  x2-y2    tot
    1  0.000  0.003  0.008  0.000  0.000  0.000  0.000  0.000  0.000  0.012
    2  0.001  0.006  0.040  0.000  0.000  0.000  0.000  0.000  0.000  0.047
    3  0.010  0.002  0.021  0.000  0.000  0.000  0.000  0.000  0.000  0.032
    4  0.007  0.004  0.011  0.000  0.000  0.000  0.000  0.000  0.000  0.022
    5  0.000  0.042  0.037  0.000  0.000  0.000  0.000  0.000  0.000  0.080
    6  0.005  0.001  0.114  0.000  0.000  0.000  0.000  0.000  0.000  0.120
    7  0.001  0.005  0.127  0.000  0.000  0.000  0.000  0.000  0.000  0.132
    8  0.000  0.044  0.026  0.000  0.000  0.000  0.000  0.000  0.000  0.070
    9  0.000  0.000  0.000  0.000  0.000  0.000  0.000  0.000  0.000  0.000
   10  0.000  0.000  0.000  0.000  0.000  0.000  0.000  0.000  0.000  0.000
   11  0.008  0.000  0.000  0.000  0.000  0.000  0.000  0.000  0.000  0.008
   12  0.010  0.001  0.000  0.000  0.000  0.000  0.000  0.000  0.000  0.011
   13  0.029  0.002  0.000  0.000  0.000  0.000  0.000  0.000  0.000  0.031
   14  0.041  0.001  0.001  0.000  0.000  0.000  0.000  0.000  0.000  0.044
   15  0.080  0.002  0.002  0.000  0.000  0.000  0.000  0.000  0.000  0.084
   16  0.002  0.002  0.033  0.000  0.000  0.000  0.000  0.000  0.000  0.037
tot    0.195  0.114  0.421  0.001  0.000  0.000  0.000  0.000  0.000  0.732
 
band    14 # energy   -9.62217189 # occ.  2.00000000
 
ion      s     py     pz     px    dxy    dyz    dz2    dxz  x2-y2    tot
    1  0.000  0.121  0.010  0.000  0.000  0.000  0.000  0.000  0.000  0.131
    2  0.005  0.125  0.001  0.000  0.000  0.000  0.000  0.000  0.000  0.130
    3  0.010  0.000  0.010  0.000  0.000  0.000  0.000  0.000  0.000  0.019
    4  0.016  0.002  0.029  0.000  0.000  0.000  0.000  0.000  0.000  0.047
    5  0.001  0.131  0.005  0.000  0.000  0.000  0.000  0.000  0.000  0.136
    6  0.007  0.008  0.000  0.000  0.000  0.000  0.000  0.000  0.000  0.015
    7  0.012  0.004  0.012  0.000  0.000  0.000  0.000  0.000  0.000  0.027
    8  0.000  0.008  0.013  0.000  0.000  0.000  0.000  0.000  0.000  0.022
    9  0.023  0.000  0.000  0.001  0.000  0.000  0.000  0.000  0.000  0.025
   10  0.023  0.000  0.000  0.001  0.000  0.000  0.000  0.000  0.000  0.025
   11  0.002  0.001  0.000  0.000  0.000  0.000  0.000  0.000  0.000  0.003
   12  0.001  0.000  0.000  0.000  0.000  0.000  0.000  0.000  0.000  0.001
   13  0.110  0.005  0.000  0.000  0.000  0.000  0.000  0.000  0.000  0.115
   14  0.008  0.000  0.000  0.000  0.000  0.000  0.000  0.000  0.000  0.008
   15  0.001  0.000  0.000  0.000  0.000  0.000  0.000  0.000  0.000  0.002
   16  0.000  0.000  0.006  0.000  0.000  0.000  0.000  0.000  0.000  0.006
tot    0.217  0.405  0.087  0.003  0.000  0.000  0.000  0.000  0.000  0.713
 
band    15 # energy   -9.44290825 # occ.  2.00000000
 
ion      s     py     pz     px    dxy    dyz    dz2    dxz  x2-y2    tot
    1  0.000  0.000  0.001  0.240  0.000  0.000  0.000  0.000  0.000  0.241
    2  0.000  0.000  0.000  0.036  0.000  0.000  0.000  0.000  0.000  0.036
    3  0.000  0.000  0.000  0.001  0.000  0.000  0.000  0.000  0.000  0.001
    4  0.000  0.000  0.000  0.002  0.000  0.000  0.000  0.000  0.000  0.002
    5  0.000  0.000  0.000  0.000  0.000  0.000  0.000  0.000  0.000  0.000
    6  0.000  0.000  0.000  0.001  0.000  0.000  0.000  0.000  0.000  0.001
    7  0.000  0.000  0.000  0.008  0.000  0.000  0.000  0.000  0.000  0.008
    8  0.000  0.000  0.000  0.105  0.000  0.000  0.000  0.000  0.000  0.105
    9  0.119  0.002  0.003  0.002  0.000  0.000  0.000  0.000  0.000  0.125
   10  0.119  0.001  0.003  0.001  0.000  0.000  0.000  0.000  0.000  0.124
   11  0.000  0.000  0.000  0.002  0.000  0.000  0.000  0.000  0.000  0.002
   12  0.000  0.000  0.000  0.000  0.000  0.000  0.000  0.000  0.000  0.000
   13  0.000  0.000  0.000  0.000  0.000  0.000  0.000  0.000  0.000  0.000
   14  0.000  0.000  0.000  0.000  0.000  0.000  0.000  0.000  0.000  0.000
   15  0.000  0.000  0.000  0.000  0.000  0.000  0.000  0.000  0.000  0.000
   16  0.000  0.000  0.000  0.005  0.000  0.000  0.000  0.000  0.000  0.005
tot    0.238  0.003  0.006  0.402  0.000  0.000  0.000  0.000  0.000  0.649
 
band    16 # energy   -9.31798913 # occ.  2.00000000
 
ion      s     py     pz     px    dxy    dyz    dz2    dxz  x2-y2    tot
    1  0.000  0.036  0.120  0.000  0.000  0.000  0.000  0.000  0.000  0.157
    2  0.003  0.027  0.003  0.000  0.000  0.000  0.000  0.000  0.000  0.033
    3  0.014  0.003  0.006  0.000  0.000  0.000  0.000  0.000  0.000  0.022
    4  0.001  0.006  0.009  0.000  0.000  0.000  0.000  0.000  0.000  0.016
    5  0.004  0.000  0.000  0.000  0.000  0.000  0.000  0.000  0.000  0.004
    6  0.000  0.030  0.015  0.000  0.000  0.000  0.000  0.000  0.000  0.045
    7  0.004  0.018  0.000  0.000  0.000  0.000  0.000  0.000  0.000  0.022
    8  0.000  0.024  0.006  0.000  0.000  0.000  0.000  0.000  0.000  0.030
    9  0.009  0.001  0.000  0.000  0.000  0.000  0.000  0.000  0.000  0.011
   10  0.009  0.001  0.000  0.001  0.000  0.000  0.000  0.000  0.000  0.011
   11  0.123  0.001  0.004  0.000  0.000  0.000  0.000  0.000  0.000  0.128
   12  0.014  0.000  0.002  0.000  0.000  0.000  0.000  0.000  0.000  0.016
   13  0.002  0.000  0.000  0.000  0.000  0.000  0.000  0.000  0.000  0.002
   14  0.030  0.000  0.001  0.000  0.000  0.000  0.000  0.000  0.000  0.032
   15  0.001  0.000  0.000  0.000  0.000  0.000  0.000  0.000  0.000  0.001
   16  0.023  0.149  0.001  0.000  0.000  0.000  0.000  0.000  0.000  0.174
tot    0.237  0.296  0.169  0.002  0.000  0.000  0.000  0.000  0.000  0.704
 
band    17 # energy   -9.18013272 # occ.  2.00000000
 
ion      s     py     pz     px    dxy    dyz    dz2    dxz  x2-y2    tot
    1  0.001  0.009  0.000  0.000  0.000  0.000  0.000  0.000  0.000  0.010
    2  0.008  0.003  0.004  0.000  0.000  0.000  0.000  0.000  0.000  0.015
    3  0.000  0.001  0.000  0.000  0.000  0.000  0.000  0.000  0.000  0.001
    4  0.002  0.011  0.025  0.000  0.000  0.000  0.000  0.000  0.000  0.037
    5  0.002  0.001  0.044  0.000  0.000  0.000  0.000  0.000  0.000  0.047
    6  0.001  0.015  0.035  0.000  0.000  0.000  0.000  0.000  0.000  0.051
    7  0.002  0.024  0.002  0.000  0.000  0.000  0.000  0.000  0.000  0.029
    8  0.000  0.372  0.074  0.000  0.000  0.000  0.000  0.000  0.000  0.447
    9  0.001  0.000  0.000  0.000  0.000  0.000  0.000  0.000  0.000  0.001
   10  0.001  0.000  0.000  0.000  0.000  0.000  0.000  0.000  0.000  0.001
   11  0.000  0.000  0.000  0.000  0.000  0.000  0.000  0.000  0.000  0.000
   12  0.002  0.000  0.002  0.000  0.000  0.000  0.000  0.000  0.000  0.004
   13  0.000  0.000  0.000  0.000  0.000  0.000  0.000  0.000  0.000  0.001
   14  0.013  0.001  0.000  0.000  0.000  0.000  0.000  0.000  0.000  0.014
   15  0.020  0.000  0.001  0.000  0.000  0.000  0.000  0.000  0.000  0.021
   16  0.005  0.097  0.003  0.000  0.000  0.000  0.000  0.000  0.000  0.105
tot    0.057  0.532  0.191  0.001  0.000  0.000  0.000  0.000  0.000  0.781
 
band    18 # energy   -9.01563493 # occ.  2.00000000
 
ion      s     py     pz     px    dxy    dyz    dz2    dxz  x2-y2    tot
    1  0.000  0.000  0.000  0.005  0.000  0.000  0.000  0.000  0.000  0.005
    2  0.000  0.000  0.000  0.001  0.000  0.000  0.000  0.000  0.000  0.001
    3  0.000  0.000  0.000  0.002  0.000  0.000  0.000  0.000  0.000  0.002
    4  0.000  0.000  0.000  0.117  0.000  0.000  0.000  0.000  0.000  0.117
    5  0.000  0.000  0.000  0.038  0.000  0.000  0.000  0.000  0.000  0.038
    6  0.000  0.000  0.000  0.013  0.000  0.000  0.000  0.000  0.000  0.013
    7  0.000  0.000  0.000  0.004  0.000  0.000  0.000  0.000  0.000  0.004
    8  0.000  0.000  0.000  0.164  0.000  0.000  0.000  0.000  0.000  0.165
    9  0.003  0.000  0.000  0.000  0.000  0.000  0.000  0.000  0.000  0.003
   10  0.003  0.000  0.000  0.000  0.000  0.000  0.000  0.000  0.000  0.003
   11  0.000  0.000  0.000  0.000  0.000  0.000  0.000  0.000  0.000  0.000
   12  0.000  0.000  0.000  0.004  0.000  0.000  0.000  0.000  0.000  0.004
   13  0.000  0.000  0.000  0.000  0.000  0.000  0.000  0.000  0.000  0.000
   14  0.000  0.000  0.000  0.000  0.000  0.000  0.000  0.000  0.000  0.000
   15  0.000  0.000  0.000  0.000  0.000  0.000  0.000  0.000  0.000  0.000
   16  0.000  0.000  0.001  0.277  0.000  0.000  0.000  0.000  0.000  0.278
tot    0.006  0.000  0.001  0.625  0.000  0.000  0.000  0.000  0.000  0.632
 
band    19 # energy   -8.57469685 # occ.  2.00000000
 
ion      s     py     pz     px    dxy    dyz    dz2    dxz  x2-y2    tot
    1  0.000  0.000  0.098  0.000  0.000  0.000  0.000  0.000  0.000  0.099
    2  0.001  0.000  0.001  0.000  0.000  0.000  0.000  0.000  0.000  0.003
    3  0.002  0.014  0.001  0.000  0.000  0.000  0.000  0.000  0.000  0.016
    4  0.003  0.018  0.000  0.000  0.000  0.000  0.000  0.000  0.000  0.021
    5  0.000  0.014  0.049  0.000  0.000  0.000  0.000  0.000  0.000  0.063
    6  0.001  0.048  0.025  0.000  0.000  0.000  0.000  0.000  0.000  0.074
    7  0.001  0.059  0.011  0.000  0.000  0.000  0.000  0.000  0.000  0.071
    8  0.000  0.012  0.008  0.000  0.000  0.000  0.000  0.000  0.000  0.020
    9  0.020  0.000  0.000  0.001  0.000  0.000  0.000  0.000  0.000  0.022
   10  0.020  0.000  0.000  0.001  0.000  0.000  0.000  0.000  0.000  0.022
   11  0.070  0.001  0.002  0.000  0.000  0.000  0.000  0.000  0.000  0.073
   12  0.026  0.000  0.003  0.000  0.000  0.000  0.000  0.000  0.000  0.029
   13  0.010  0.000  0.000  0.000  0.000  0.000  0.000  0.000  0.000  0.011
   14  0.002  0.001  0.000  0.000  0.000  0.000  0.000  0.000  0.000  0.003
   15  0.046  0.000  0.002  0.000  0.000  0.000  0.000  0.000  0.000  0.048
   16  0.024  0.166  0.002  0.000  0.000  0.000  0.000  0.000  0.000  0.192
tot    0.227  0.333  0.202  0.003  0.000  0.000  0.000  0.000  0.000  0.764
 
band    20 # energy   -8.05013778 # occ.  2.00000000
 
ion      s     py     pz     px    dxy    dyz    dz2    dxz  x2-y2    tot
    1  0.000  0.004  0.044  0.000  0.000  0.000  0.000  0.000  0.000  0.047
    2  0.002  0.009  0.108  0.000  0.000  0.000  0.000  0.000  0.000  0.119
    3  0.011  0.010  0.016  0.000  0.000  0.000  0.000  0.000  0.000  0.037
    4  0.009  0.000  0.012  0.000  0.000  0.000  0.000  0.000  0.000  0.021
    5  0.004  0.001  0.041  0.000  0.000  0.000  0.000  0.000  0.000  0.045
    6  0.000  0.010  0.074  0.000  0.000  0.000  0.000  0.000  0.000  0.084
    7  0.000  0.015  0.100  0.000  0.000  0.000  0.000  0.000  0.000  0.115
    8  0.000  0.017  0.051  0.000  0.000  0.000  0.000  0.000  0.000  0.068
    9  0.014  0.000  0.000  0.001  0.000  0.000  0.000  0.000  0.000  0.015
   10  0.014  0.000  0.000  0.001  0.000  0.000  0.000  0.000  0.000  0.015
   11  0.035  0.001  0.001  0.000  0.000  0.000  0.000  0.000  0.000  0.036
   12  0.003  0.000  0.000  0.000  0.000  0.000  0.000  0.000  0.000  0.003
   13  0.000  0.000  0.000  0.000  0.000  0.000  0.000  0.000  0.000  0.001
   14  0.083  0.001  0.002  0.000  0.000  0.000  0.000  0.000  0.000  0.086
   15  0.048  0.001  0.001  0.000  0.000  0.000  0.000  0.000  0.000  0.050
   16  0.001  0.000  0.013  0.000  0.000  0.000  0.000  0.000  0.000  0.014
tot    0.224  0.067  0.462  0.002  0.000  0.000  0.000  0.000  0.000  0.755
 
band    21 # energy   -7.63062984 # occ.  2.00000000
 
ion      s     py     pz     px    dxy    dyz    dz2    dxz  x2-y2    tot
    1  0.002  0.057  0.000  0.000  0.000  0.000  0.000  0.000  0.000  0.060
    2  0.001  0.059  0.009  0.000  0.000  0.000  0.000  0.000  0.000  0.069
    3  0.001  0.072  0.016  0.000  0.000  0.000  0.000  0.000  0.000  0.090
    4  0.000  0.079  0.004  0.000  0.000  0.000  0.000  0.000  0.000  0.083
    5  0.001  0.051  0.004  0.000  0.000  0.000  0.000  0.000  0.000  0.057
    6  0.001  0.056  0.001  0.000  0.000  0.000  0.000  0.000  0.000  0.057
    7  0.001  0.054  0.003  0.000  0.000  0.000  0.000  0.000  0.000  0.057
    8  0.000  0.072  0.003  0.000  0.000  0.000  0.000  0.000  0.000  0.076
    9  0.004  0.000  0.000  0.000  0.000  0.000  0.000  0.000  0.000  0.004
   10  0.004  0.000  0.000  0.000  0.000  0.000  0.000  0.000  0.000  0.004
   11  0.003  0.000  0.000  0.000  0.000  0.000  0.000  0.000  0.000  0.004
   12  0.010  0.000  0.001  0.000  0.000  0.000  0.000  0.000  0.000  0.012
   13  0.050  0.001  0.000  0.000  0.000  0.000  0.000  0.000  0.000  0.051
   14  0.017  0.000  0.001  0.000  0.000  0.000  0.000  0.000  0.000  0.018
   15  0.024  0.000  0.001  0.000  0.000  0.000  0.000  0.000  0.000  0.025
   16  0.007  0.089  0.004  0.000  0.000  0.000  0.000  0.000  0.000  0.100