QM9                                     
           1
     7.756100    0.000000    0.000000
     0.000000   11.836100    0.000000
     0.000000    0.000000   11.230200
   C    F    H    O 
     7     1     7     1
Direct configuration=     1
   0.49765991  0.71083381  0.53741696
   0.50063821  0.58366354  0.54235009
   0.50939261  0.52113450  0.43802426
   0.51262877  0.40341836  0.43537070
   0.50678821  0.34498695  0.54290217
   0.49796934  0.40531932  0.64908016
   0.49490079  0.52299322  0.64910687
   0.51529764  0.57466564  0.33140995
   0.61320767  0.74424853  0.49380243
   0.38679233  0.74172236  0.48653630
   0.49071054  0.74653813  0.62697013
   0.52418097  0.40156808  0.26713683
   0.50927657  0.25346187  0.54126374
   0.49341808  0.35983981  0.73286317
   0.48800299  0.56895430  0.73254261
   0.52129292  0.34647392  0.33045716
Direct configuration=     2
   0.49765067  0.71055823  0.53749270
   0.50059765  0.58419635  0.54236091
   0.50930625  0.52066631  0.43918743
   0.51260963  0.40345833  0.43566167
   0.50677837  0.34501345  0.54295462
   0.49796918  0.40529669  0.64904670
   0.49492830  0.52294949  0.64908650
   0.51542735  0.57535912  0.32992749
   0.61351232  0.74433419  0.49367834
   0.38649782  0.74180138  0.48639414
   0.49068870  0.74660786  0.62722102
   0.52422175  0.40207335  0.26634643
   0.50928228  0.25309712  0.54127529
   0.49339737  0.35966773  0.73316439
   0.48797270  0.56914795  0.73285303
   0.52131719  0.34559478  0.33058288
Direct configuration=     3
   0.49765318  0.71063333  0.53747206
   0.50060871  0.58405114  0.54235796
   0.50932979  0.52079390  0.43887043
   0.51261485  0.40344744  0.43558237
   0.50678105  0.34500623  0.54294033
   0.49796922  0.40530285  0.64905582
   0.49492080  0.52296141  0.64909205
   0.51539200  0.57517013  0.33033150
   0.61342929  0.74431085  0.49371215
   0.38657809  0.74177984  0.48643288
   0.49069465  0.74658885  0.62715265
   0.52421064  0.40193565  0.26656184
   0.50928072  0.25319652  0.54127214
   0.49340302  0.35971462  0.73308230
   0.48798095  0.56909517  0.73276843
   0.52131057  0.34583437  0.33054862
Direct configuration=     4
   0.49763818  0.71073821  0.53750241
   0.50057334  0.58426778  0.54260305
   0.50930899  0.52102531  0.43873042
   0.51262559  0.40314998  0.43559097
   0.50677096  0.34478426  0.54307788
   0.49796315  0.40523262  0.64920035
   0.49493742  0.52312049  0.64920459
   0.51544268  0.57531207  0.32982055
   0.61356427  0.74433908  0.49364795
   0.38644874  0.74180718  0.48635963
   0.49068301  0.74661046  0.62730880
   0.52422288  0.40181783  0.26648204
   0.50928525  0.25298201  0.54128302
   0.49339204  0.35961353  0.73326206
   0.48796567  0.56920710  0.73295334
   0.52133535  0.34581442  0.33020646
Direct configuration=     5
   0.49763387  0.71076833  0.53751113
   0.50056318  0.58433002  0.54267345
   0.50930302  0.52109179  0.43869020
   0.51262868  0.40306453  0.43559344
   0.50676806  0.34472050  0.54311740
   0.49796141  0.40521244  0.64924187
   0.49494220  0.52316619  0.64923692
   0.51545724  0.57535284  0.32967377
   0.61360304  0.74434719  0.49362951
   0.38641159  0.74181503  0.48633859
   0.49067966  0.74661667  0.62735366
   0.52422639  0.40178398  0.26645912
   0.50928655  0.25292039  0.54128615
   0.49338888  0.35958448  0.73331370
   0.48796128  0.56923925  0.73300645
   0.52134247  0.34580869  0.33010818
Direct configuration=     6
   0.49762128  0.71106644  0.53757676
   0.50057923  0.58439014  0.54257196
   0.50928131  0.52113961  0.43843402
   0.51262963  0.40317898  0.43541130
   0.50675985  0.34449651  0.54322359
   0.49794603  0.40525049  0.64938955
   0.49494522  0.52313106  0.64947943
   0.51549561  0.57536406  0.32947553
   0.61366010  0.74436056  0.49359620
   0.38634694  0.74183240  0.48629777
   0.49066898  0.74665532  0.62747022
   0.52424553  0.40175731  0.26626212
   0.50928927  0.25265167  0.54133199
   0.49337673  0.35949344  0.73350256
   0.48794726  0.56935753  0.73320586
   0.52136457  0.34569681  0.33000467
Direct configuration=     7
   0.49762019  0.71109225  0.53758244
   0.50058062  0.58439534  0.54256318
   0.50927943  0.52114375  0.43841185
   0.51262971  0.40318889  0.43539554
   0.50675913  0.34447713  0.54323278
   0.49794470  0.40525378  0.64940233
   0.49494548  0.52312802  0.64950042
   0.51549893  0.57536503  0.32945837
   0.61366504  0.74436171  0.49359331
   0.38634135  0.74183391  0.48629423
   0.49066806  0.74665866  0.62748031
   0.52424719  0.40175500  0.26624507
   0.50928951  0.25262841  0.54133596
   0.49337568  0.35948556  0.73351891
   0.48794605  0.56936776  0.73322312
   0.52136648  0.34568712  0.32999571
Direct configuration=     8
   0.49763441  0.71125610  0.53761286
   0.50060125  0.58434458  0.54247792
   0.50925361  0.52119019  0.43829745
   0.51261912  0.40314259  0.43539708
   0.50675752  0.34453402  0.54316745
   0.49791824  0.40514230  0.64951469
   0.49495042  0.52322642  0.64950274
   0.51553065  0.57533953  0.32932714
   0.61369666  0.74440515  0.49357902
   0.38629646  0.74188039  0.48627538
   0.49065318  0.74673768  0.62760927
   0.52426609  0.40167335  0.26606308
   0.50928853  0.25236210  0.54140375
   0.49336237  0.35943047  0.73367742
   0.48793340  0.56947619  0.73341688
   0.52139563  0.34568126  0.32991141
Direct configuration=     9
   0.49763240  0.71123287  0.53760855
   0.50059832  0.58435177  0.54249000
   0.50925727  0.52118361  0.43831366
   0.51262062  0.40314915  0.43539686
   0.50675775  0.34452596  0.54317671
   0.49792199  0.40515811  0.64949876
   0.49494972  0.52321247  0.64950241
   0.51552615  0.57534315  0.32934574
   0.61369217  0.74439899  0.49358104
   0.38630282  0.74187380  0.48627805
   0.49065529  0.74672647  0.62759099
   0.52426341  0.40168492  0.26608888
   0.50928866  0.25239985  0.54139414
   0.49336426  0.35943828  0.73365495
   0.48793519  0.56946082  0.73338941
   0.52139150  0.34568210  0.32992336
Direct configuration=    10
   0.49762818  0.71118660  0.53761019
   0.50060465  0.58438358  0.54247319
   0.50925177  0.52113920  0.43831541
   0.51261158  0.40313341  0.43538053
   0.50675858  0.34448527  0.54315732
   0.49790767  0.40515787  0.64950322
   0.49494330  0.52321857  0.64947433
   0.51553386  0.57531693  0.32928212
   0.61371023  0.74445730  0.49358420
   0.38629720  0.74192842  0.48628632
   0.49065046  0.74679346  0.62765748
   0.52427896  0.40160319  0.26599392
   0.50928663  0.25238301  0.54144150
   0.49335771  0.35941568  0.73374053
   0.48793790  0.56950383  0.73343779
   0.52139886  0.34571598  0.32989546
