 vasp.5.4.4.18Apr17-6-g9f103f2a35 (build Feb 23 2022 11:43:59) gamma-only       
  
 executed on             LinuxIFC date 2024.07.19  15:44:54
 running on   64 total cores
 distrk:  each k-point on   64 cores,    1 groups
 distr:  one band on NCORES_PER_BAND=  16 cores,    4 groups


--------------------------------------------------------------------------------------------------------


 INCAR:
 POTCAR:    PAW_PBE Ru_pv 28Jan2005               
 POTCAR:    PAW_PBE N 08Apr2002                   
 POTCAR:    PAW_PBE H 15Jun2001                   
 POTCAR:    PAW_PBE Ru_pv 28Jan2005               
   VRHFIN =Ru: 4p5s4d                                                           
   LEXCH  = PE                                                                  
   EATOM  =  1873.4746 eV,  137.6965 Ry                                         
                                                                                
   TITEL  = PAW_PBE Ru_pv 28Jan2005                                             
   LULTRA =        F    use ultrasoft PP ?                                      
   IUNSCR =        1    unscreen: 0-lin 1-nonlin 2-no                           
   RPACOR =    2.170    partial core radius                                     
   POMASS =  101.070; ZVAL   =   14.000    mass and valenz                      
   RCORE  =    2.500    outmost cutoff radius                                   
   RWIGS  =    2.650; RWIGS  =    1.402    wigner-seitz radius (au A)           
   ENMAX  =  240.049; ENMIN  =  180.037 eV                                      
   ICORE  =        3    local potential                                         
   LCOR   =        T    correct aug charges                                     
   LPAW   =        T    paw PP                                                  
   EAUG   =  430.792                                                            
   DEXC   =    0.000                                                            
   RMAX   =    2.546    core radius for proj-oper                               
   RAUG   =    1.300    factor for augmentation sphere                          
   RDEP   =    2.520    radius for radial grids                                 
   RDEPT  =    2.044    core radius for aug-charge                              
                                                                                
   Atomic configuration                                                         
   11 entries                                                                   
     n  l   j            E        occ.                                          
     1  0  0.50    -21933.2692   2.0000                                         
     2  0  0.50     -3153.4096   2.0000                                         
     2  1  1.50     -2823.9548   6.0000                                         
     3  0  0.50      -555.3322   2.0000                                         
     3  1  1.50      -447.1024   6.0000                                         
     3  2  2.50      -273.0570  10.0000                                         
     4  0  0.50       -76.3589   2.0000                                         
     4  1  1.50       -46.4050   6.0000                                         
     4  2  2.50        -5.2029   7.0000                                         
     5  0  0.50        -4.2392   1.0000                                         
     4  3  2.50        -1.3606   0.0000                                         
   Description                                                                  
     l       E           TYP  RCUT    TYP  RCUT                                 
     1    -46.4050190     23  2.100                                             
     1      4.0817478     23  2.100                                             
     2     -5.2028758     23  2.500                                             
     2     -6.5634584     23  2.500                                             
     0     -4.2392192     23  2.500                                             
     0      7.0918828     23  2.500                                             
     3     -5.4423304     23  2.500                                             
  local pseudopotential read in
  partial core-charges read in
  partial kinetic energy density read in
  atomic valenz-charges read in
  non local Contribution for L=           1  read in
    real space projection operators read in
  non local Contribution for L=           1  read in
    real space projection operators read in
  non local Contribution for L=           2  read in
    real space projection operators read in
  non local Contribution for L=           2  read in
    real space projection operators read in
  non local Contribution for L=           0  read in
    real space projection operators read in
  non local Contribution for L=           0  read in
    real space projection operators read in
    PAW grid and wavefunctions read in
 
   number of l-projection  operators is LMAX  =           6
   number of lm-projection operators is LMMAX =          18
 
 POTCAR:    PAW_PBE N 08Apr2002                   
   VRHFIN =N: s2p3                                                              
   LEXCH  = PE                                                                  
   EATOM  =   264.5486 eV,   19.4438 Ry                                         
                                                                                
   TITEL  = PAW_PBE N 08Apr2002                                                 
   LULTRA =        F    use ultrasoft PP ?                                      
   IUNSCR =        1    unscreen: 0-lin 1-nonlin 2-no                           
   RPACOR =    1.200    partial core radius                                     
   POMASS =   14.001; ZVAL   =    5.000    mass and valenz                      
   RCORE  =    1.500    outmost cutoff radius                                   
   RWIGS  =    1.400; RWIGS  =    0.741    wigner-seitz radius (au A)           
   ENMAX  =  400.000; ENMIN  =  300.000 eV                                      
   ICORE  =        2    local potential                                         
   LCOR   =        T    correct aug charges                                     
   LPAW   =        T    paw PP                                                  
   EAUG   =  627.112                                                            
   DEXC   =    0.000                                                            
   RMAX   =    1.529    core radius for proj-oper                               
   RAUG   =    1.300    factor for augmentation sphere                          
   RDEP   =    1.514    radius for radial grids                                 
   RDEPT  =    1.338    core radius for aug-charge                              
                                                                                
   Atomic configuration                                                         
    4 entries                                                                   
     n  l   j            E        occ.                                          
     1  0  0.50      -384.7179   2.0000                                         
     2  0  0.50       -18.5828   2.0000                                         
     2  1  0.50        -7.0898   3.0000                                         
     3  2  1.50        -6.8029   0.0000                                         
   Description                                                                  
     l       E           TYP  RCUT    TYP  RCUT                                 
     0    -18.5828119     23  1.200                                             
     0    -13.5018863     23  1.200                                             
     1     -7.0897853     23  1.500                                             
     1      9.5240782     23  1.500                                             
     2     -6.8029130      7  1.500                                             
  local pseudopotential read in
  partial core-charges read in
  partial kinetic energy density read in
  atomic valenz-charges read in
  non local Contribution for L=           0  read in
    real space projection operators read in
  non local Contribution for L=           0  read in
    real space projection operators read in
  non local Contribution for L=           1  read in
    real space projection operators read in
  non local Contribution for L=           1  read in
    real space projection operators read in
    PAW grid and wavefunctions read in
 
   number of l-projection  operators is LMAX  =           4
   number of lm-projection operators is LMMAX =           8
 
 POTCAR:    PAW_PBE H 15Jun2001                   
   VRHFIN =H: ultrasoft test                                                    
   LEXCH  = PE                                                                  
   EATOM  =    12.4884 eV,    0.9179 Ry                                         
                                                                                
   TITEL  = PAW_PBE H 15Jun2001                                                 
   LULTRA =        F    use ultrasoft PP ?                                      
   IUNSCR =        0    unscreen: 0-lin 1-nonlin 2-no                           
   RPACOR =    0.000    partial core radius                                     
   POMASS =    1.000; ZVAL   =    1.000    mass and valenz                      
   RCORE  =    1.100    outmost cutoff radius                                   
   RWIGS  =    0.700; RWIGS  =    0.370    wigner-seitz radius (au A)           
   ENMAX  =  250.000; ENMIN  =  200.000 eV                                      
   RCLOC  =    0.701    cutoff for local pot                                    
   LCOR   =        T    correct aug charges                                     
   LPAW   =        T    paw PP                                                  
   EAUG   =  400.000                                                            
   RMAX   =    1.123    core radius for proj-oper                               
   RAUG   =    1.200    factor for augmentation sphere                          
   RDEP   =    1.112    radius for radial grids                                 
   RDEPT  =    0.926    core radius for aug-charge                              
                                                                                
   Atomic configuration                                                         
    2 entries                                                                   
     n  l   j            E        occ.                                          
     1  0  0.50        -6.4927   1.0000                                         
     2  1  0.50        -3.4015   0.0000                                         
   Description                                                                  
     l       E           TYP  RCUT    TYP  RCUT                                 
     0     -6.4927494     23  1.100                                             
     0      6.8029130     23  1.100                                             
     1     -4.0817478     23  1.100                                             
  local pseudopotential read in
  atomic valenz-charges read in
  non local Contribution for L=           0  read in
    real space projection operators read in
  non local Contribution for L=           0  read in
    real space projection operators read in
  non local Contribution for L=           1  read in
    real space projection operators read in
    PAW grid and wavefunctions read in
 
   number of l-projection  operators is LMAX  =           3
   number of lm-projection operators is LMMAX =           5
 
 Optimization of the real space projectors (new method)

 maximal supplied QI-value         = 15.12
 optimisation between [QCUT,QGAM] = [ 11.34, 22.83] = [ 36.00,145.93] Ry 
 Optimized for a Real-space Cutoff    1.43 Angstroem

   l    n(q)    QCUT    max X(q) W(low)/X(q) W(high)/X(q)  e(spline) 
   1      9    11.338     3.180    0.41E-04    0.57E-05    0.54E-07
   1      9    11.338     5.351    0.17E-03    0.94E-04    0.32E-06
   2      9    11.338    66.565    0.29E-03    0.11E-04    0.27E-06
   2      9    11.338    63.466    0.30E-03    0.11E-04    0.28E-06
   0     10    11.338    85.644    0.87E-04    0.33E-04    0.16E-06
   0     10    11.338    44.119    0.80E-04    0.30E-04    0.15E-06
 Optimization of the real space projectors (new method)

 maximal supplied QI-value         = 25.13
 optimisation between [QCUT,QGAM] = [ 11.31, 22.87] = [ 35.82,146.48] Ry 
 Optimized for a Real-space Cutoff    1.27 Angstroem

   l    n(q)    QCUT    max X(q) W(low)/X(q) W(high)/X(q)  e(spline) 
   0      9    11.310    79.467    0.75E-04    0.16E-03    0.36E-06
   0      9    11.310    66.151    0.74E-04    0.16E-03    0.36E-06
   1      8    11.310    17.416    0.35E-03    0.12E-03    0.95E-06
   1      8    11.310    12.382    0.37E-03    0.13E-03    0.98E-06
 Optimization of the real space projectors (new method)

 maximal supplied QI-value         = 34.20
 optimisation between [QCUT,QGAM] = [ 11.29, 22.57] = [ 35.68,142.71] Ry 
 Optimized for a Real-space Cutoff    1.16 Angstroem

   l    n(q)    QCUT    max X(q) W(low)/X(q) W(high)/X(q)  e(spline) 
   0      8    11.287    19.460    0.40E-03    0.73E-03    0.16E-06
   0      8    11.287    12.209    0.38E-03    0.70E-03    0.15E-06
   1      7    11.287     4.655    0.22E-03    0.25E-04    0.22E-06
  PAW_PBE Ru_pv 28Jan2005               :
 energy of atom  1       EATOM=-1873.4746
 kinetic energy error for atom=    0.0074 (will be added to EATOM!!)
  PAW_PBE N 08Apr2002                   :
 energy of atom  2       EATOM= -264.5486
 kinetic energy error for atom=    0.0138 (will be added to EATOM!!)
  PAW_PBE H 15Jun2001                   :
 energy of atom  3       EATOM=  -12.4884
 kinetic energy error for atom=    0.0020 (will be added to EATOM!!)
 
 
 POSCAR: Ru  N  H                                
  positions in cartesian coordinates
  No initial velocities read in
 exchange correlation table for  LEXCH =        8
   RHO(1)=    0.500       N(1)  =     2000
   RHO(2)=  100.500       N(2)  =     4000

 VTST: version 3.2, (02/03/18)

 CHAIN: initializing optimizer
 
 OPT: Using VASP Conjugate-Gradient optimizer
 CHAIN: Read ICHAIN            0
 
 POSCAR: Ru  N  H                                
  positions in cartesian coordinates
  No initial velocities read in
 


--------------------------------------------------------------------------------------------------------


 ion  position               nearest neighbor table
   1  0.083  0.167  0.283-  19 2.63   4 2.64  24 2.64  18 2.65  23 2.65   3 2.65  61 2.71  76 2.71
                            21 2.71  26 2.71   6 2.71  16 2.71
   2  0.083  0.167  0.449-  25 2.58   5 2.59  20 2.59   4 2.65  24 2.65  19 2.65  17 2.71  77 2.71
                            27 2.71  62 2.71   7 2.71  22 2.71
   3  0.167  0.083  0.200-  61 2.65   6 2.65   1 2.65  18 2.71  78 2.71   8 2.71  28 2.71  23 2.71
                            63 2.71
   4  0.167  0.083  0.366-   6 2.64  61 2.64   1 2.64   7 2.64  62 2.65   2 2.65   9 2.71  29 2.71
                            19 2.71  79 2.71  64 2.71  24 2.71
   5  0.164  0.080  0.529-  62 2.57   7 2.59   2 2.59  65 2.68  80 2.71  10 2.72  30 2.72  20 2.73
                            25 2.75
   6  0.333  0.167  0.283-   9 2.64   4 2.64  29 2.64  28 2.65   3 2.65   8 2.65  66 2.71  11 2.71
                            31 2.71  61 2.71  26 2.71   1 2.71
   7  0.333  0.166  0.449-   5 2.59  10 2.59  30 2.61   4 2.64   9 2.65  29 2.65  67 2.70  62 2.70
                             2 2.71  12 2.71  32 2.72  27 2.73
   8  0.417  0.083  0.200-  66 2.65  11 2.65   6 2.65   3 2.71  28 2.71  63 2.71  33 2.71  68 2.71
                            13 2.71
   9  0.417  0.083  0.366-   6 2.64  11 2.64  66 2.64  67 2.64   7 2.65  12 2.65   4 2.71  29 2.71
                            34 2.71  14 2.71  69 2.71  64 2.71
  10  0.415  0.079  0.529-  67 2.56   7 2.59  12 2.60  65 2.65  70 2.68   5 2.72  15 2.73  30 2.74
                            35 2.77
  11  0.583  0.167  0.283-  14 2.64  34 2.64   9 2.64   8 2.65  33 2.65  13 2.65  66 2.71  71 2.71
                             6 2.71  31 2.71  36 2.71  16 2.71
  12  0.583  0.166  0.449-  35 2.58  15 2.59  10 2.60  14 2.64   9 2.65  34 2.65  72 2.70  17 2.71
                            67 2.71  32 2.71  37 2.71   7 2.71
  13  0.667  0.083  0.200-  16 2.65  71 2.65  11 2.65  18 2.71  38 2.71  33 2.71  73 2.71  68 2.71
                             8 2.71
  14  0.667  0.083  0.366-  11 2.64  71 2.64  16 2.64  17 2.64  72 2.64  12 2.64  69 2.70  74 2.71
                            34 2.71   9 2.71  39 2.71  19 2.71
  15  0.671  0.087  0.529-  17 2.57  12 2.59  72 2.61  40 2.63  35 2.66  20 2.66  10 2.73  75 2.74
                            70 2.79
  16  0.833  0.167  0.283-  39 2.64  19 2.64  14 2.64  13 2.65  38 2.65  18 2.65  76 2.71  71 2.71
                            36 2.71  11 2.71  21 2.71   1 2.71
  17  0.833  0.167  0.449-  15 2.57  40 2.57  20 2.57  14 2.64  19 2.64  39 2.64  72 2.70  77 2.70
                             2 2.71  12 2.71  22 2.71  37 2.71
  18  0.917  0.083  0.200-   1 2.65  76 2.65  16 2.65   3 2.71  23 2.71  13 2.71  38 2.71  73 2.71
                            78 2.71
  19  0.917  0.083  0.366-   1 2.63  76 2.64  16 2.64  17 2.64  77 2.64   2 2.65  79 2.71  74 2.71
                             4 2.71  24 2.71  14 2.71  39 2.71
  20  0.916  0.086  0.529-  17 2.57   2 2.59  77 2.60  40 2.65  15 2.66  25 2.67  75 2.72   5 2.73
                            80 2.76
  21  0.083  0.417  0.283-  39 2.63  44 2.64  24 2.64  38 2.65  43 2.65  23 2.65   1 2.71  26 2.71
                            16 2.71  46 2.71  36 2.71  41 2.71
  22  0.083  0.417  0.449-  25 2.56  45 2.60  40 2.60  44 2.64  24 2.64  39 2.65  27 2.70  37 2.70
                            42 2.71  47 2.71  17 2.71   2 2.71
  23  0.167  0.333  0.200-   1 2.65  26 2.65  21 2.65  43 2.71  38 2.71  48 2.71  18 2.71  28 2.71
                             3 2.71
  24  0.167  0.333  0.366-  26 2.64  21 2.64   1 2.64  27 2.64  22 2.64   2 2.65  49 2.71  29 2.71
                            39 2.71  19 2.71   4 2.71  44 2.71
  25  0.162  0.333  0.529-  22 2.56   2 2.58  27 2.60  40 2.67  20 2.67  45 2.69  30 2.75   5 2.75
                            50 2.75
  26  0.333  0.417  0.283-  49 2.64  24 2.64  29 2.64  48 2.65  23 2.65  28 2.65  31 2.71   6 2.71
                            51 2.71   1 2.71  21 2.71  46 2.71
  27  0.333  0.417  0.449-  25 2.60  50 2.60  30 2.62  24 2.64  49 2.65  29 2.65  22 2.70  47 2.70
                             2 2.71  52 2.71   7 2.73  32 2.73
  28  0.417  0.333  0.200-  31 2.65   6 2.65  26 2.65  48 2.71  53 2.71  23 2.71   3 2.71   8 2.71
                            33 2.71
  29  0.417  0.333  0.366-   6 2.64  26 2.64  31 2.64  32 2.65   7 2.65  27 2.65   4 2.71   9 2.71
                            24 2.71  54 2.71  49 2.71  34 2.71
  30  0.415  0.332  0.531-  81 2.25   7 2.61  27 2.62  32 2.63   5 2.72  10 2.74  25 2.75  35 2.77
                            50 2.78  55 2.79
  31  0.583  0.417  0.283-  54 2.64  34 2.64  29 2.64  28 2.65  53 2.65  33 2.65  26 2.71   6 2.71
                            11 2.71  36 2.71  56 2.71  51 2.71
  32  0.584  0.417  0.449-  35 2.61  55 2.61  30 2.63  34 2.65  54 2.65  29 2.65  37 2.70  57 2.70
                            12 2.71  52 2.71   7 2.72  27 2.73
  33  0.667  0.333  0.200-  36 2.65  11 2.65  31 2.65  53 2.71  58 2.71  38 2.71  13 2.71   8 2.71
                            28 2.71
  34  0.667  0.333  0.366-  31 2.64  11 2.64  36 2.64  37 2.64  32 2.65  12 2.65   9 2.71  54 2.71
                            29 2.71  14 2.71  39 2.71  59 2.71
  35  0.672  0.333  0.529-  37 2.56  12 2.58  32 2.61  40 2.64  15 2.66  60 2.67  55 2.77  10 2.77
                            30 2.77
  36  0.833  0.417  0.283-  39 2.63  59 2.64  34 2.64  33 2.65  58 2.65  38 2.65  11 2.71  16 2.71
                            31 2.71  21 2.71  41 2.71  56 2.71
  37  0.834  0.417  0.449-  35 2.56  60 2.59  40 2.59  34 2.64  59 2.64  39 2.64  32 2.70  22 2.70
                            42 2.71  57 2.71  17 2.71  12 2.71
  38  0.917  0.333  0.200-  21 2.65  16 2.65  36 2.65  43 2.71  58 2.71  23 2.71  33 2.71  13 2.71
                            18 2.71
  39  0.917  0.333  0.366-  21 2.63  36 2.63  16 2.64  17 2.64  37 2.64  22 2.65  44 2.71  59 2.71
                            24 2.71  34 2.71  14 2.71  19 2.71
  40  0.914  0.330  0.529-  17 2.57  37 2.59  22 2.60  15 2.63  35 2.64  20 2.65  25 2.67  60 2.76
                            45 2.78
  41  0.083  0.667  0.283-  44 2.63  59 2.63  64 2.63  63 2.65  58 2.65  43 2.65  61 2.71  66 2.71
                            46 2.71  56 2.71  36 2.71  21 2.71
  42  0.083  0.667  0.449-  65 2.60  45 2.60  60 2.60  64 2.65  59 2.65  44 2.65  62 2.70  22 2.71
                            67 2.71  37 2.71  57 2.71  47 2.71
  43  0.167  0.583  0.200-  21 2.65  46 2.65  41 2.65  23 2.71  38 2.71  58 2.71  63 2.71  68 2.71
                            48 2.71
  44  0.167  0.583  0.366-  41 2.63  46 2.64  21 2.64  47 2.64  22 2.64  42 2.65  59 2.70  64 2.70
                            39 2.71  24 2.71  49 2.71  69 2.71
  45  0.171  0.586  0.529-  47 2.56  42 2.60  22 2.60  50 2.63  70 2.63  25 2.69  65 2.71  40 2.78
                            60 2.78
  46  0.333  0.667  0.283-  44 2.64  49 2.64  69 2.64  68 2.65  43 2.65  48 2.65  51 2.71  71 2.71
                            66 2.71  41 2.71  21 2.71  26 2.71
  47  0.333  0.667  0.449-  50 2.55  45 2.56  70 2.57  69 2.64  44 2.64  49 2.64  27 2.70  67 2.70
                            42 2.71  22 2.71  52 2.71  72 2.71
  48  0.417  0.583  0.200-  26 2.65  51 2.65  46 2.65  28 2.71  23 2.71  68 2.71  43 2.71  73 2.71
                            53 2.71
  49  0.417  0.583  0.366-  26 2.64  46 2.64  51 2.64  47 2.64  52 2.65  27 2.65  24 2.71  54 2.71
                            29 2.71  74 2.71  69 2.71  44 2.71
  50  0.415  0.588  0.529-  47 2.55  52 2.59  27 2.60  45 2.63  70 2.63  75 2.69  25 2.75  30 2.78
                            55 2.79
  51  0.583  0.667  0.283-  54 2.64  49 2.64  74 2.64  73 2.65  48 2.65  53 2.65  46 2.71  71 2.71
                            76 2.71  26 2.71  56 2.71  31 2.71
  52  0.583  0.667  0.449-  75 2.58  55 2.59  50 2.59  74 2.64  49 2.65  54 2.65  72 2.71  77 2.71
                            57 2.71  47 2.71  27 2.71  32 2.71
  53  0.667  0.583  0.200-  56 2.65  31 2.65  51 2.65  33 2.71  73 2.71  78 2.71  28 2.71  58 2.71
                            48 2.71
  54  0.667  0.583  0.366-  31 2.64  51 2.64  56 2.64  57 2.64  52 2.65  32 2.65  49 2.71  29 2.71
                            34 2.71  74 2.71  79 2.71  59 2.71
  55  0.673  0.589  0.529-  57 2.56  52 2.59  80 2.61  32 2.61  60 2.63  75 2.66  35 2.77  50 2.79
                            30 2.79
  56  0.833  0.667  0.283-  59 2.64  79 2.64  54 2.64  78 2.65  53 2.65  58 2.65  76 2.71  51 2.71
                            61 2.71  31 2.71  41 2.71  36 2.71
  57  0.833  0.667  0.449-  55 2.56  60 2.57  80 2.57  79 2.64  54 2.64  59 2.64  32 2.70  62 2.70
                            42 2.71  37 2.71  52 2.71  77 2.71
  58  0.917  0.583  0.200-  41 2.65  36 2.65  56 2.65  38 2.71  43 2.71  33 2.71  63 2.71  78 2.71
                            53 2.71
  59  0.917  0.583  0.366-  41 2.63  56 2.64  36 2.64  57 2.64  37 2.64  42 2.65  44 2.70  64 2.70
                            39 2.71  79 2.71  34 2.71  54 2.71
  60  0.913  0.584  0.529-  57 2.57  37 2.59  42 2.60  55 2.63  80 2.66  35 2.67  65 2.75  40 2.76
                            45 2.78
  61  0.083  0.917  0.283-  64 2.64  79 2.64   4 2.64   3 2.65  78 2.65  63 2.65   1 2.71   6 2.71
                            41 2.71  66 2.71  56 2.71  76 2.71
  62  0.083  0.916  0.449-   5 2.57  65 2.59  80 2.60  79 2.65   4 2.65  64 2.65   7 2.70  57 2.70
                            42 2.70   2 2.71  77 2.71  67 2.71
  63  0.167  0.833  0.200-  41 2.65  66 2.65  61 2.65  78 2.71  58 2.71  43 2.71  68 2.71   8 2.71
                             3 2.71
  64  0.166  0.833  0.366-  41 2.63  61 2.64  66 2.64  67 2.65  42 2.65  62 2.65  59 2.70  44 2.70
                            79 2.71   4 2.71   9 2.71  69 2.71
  65  0.169  0.835  0.529-  67 2.57  62 2.59  42 2.60  10 2.65  70 2.67   5 2.68  45 2.71  80 2.74
                            60 2.75
  66  0.333  0.917  0.283-  69 2.64  64 2.64   9 2.64   8 2.65  63 2.65  68 2.65   6 2.71  11 2.71
                            71 2.71  46 2.71  41 2.71  61 2.71
  67  0.333  0.917  0.449-  10 2.56  65 2.57  70 2.58   9 2.64  69 2.64  64 2.65   7 2.70  47 2.70
                            42 2.71  12 2.71  62 2.71  72 2.71
  68  0.417  0.833  0.200-  46 2.65  71 2.65  66 2.65  43 2.71  48 2.71  63 2.71   8 2.71  13 2.71
                            73 2.71
  69  0.417  0.834  0.366-  71 2.63  66 2.64  46 2.64  47 2.64  67 2.64  72 2.65  14 2.70  74 2.71
                             9 2.71  49 2.71  44 2.71  64 2.71
  70  0.413  0.830  0.529-  47 2.57  67 2.58  72 2.61  50 2.63  45 2.63  65 2.67  10 2.68  75 2.75
                            15 2.79
  71  0.583  0.917  0.283-  69 2.63  14 2.64  74 2.64  13 2.65  68 2.65  73 2.65  11 2.71  66 2.71
                            46 2.71  16 2.71  51 2.71  76 2.71
  72  0.584  0.917  0.449-  75 2.60  15 2.61  70 2.61  74 2.64  14 2.64  69 2.65  77 2.70  17 2.70
                            12 2.70  52 2.71  67 2.71  47 2.71
  73  0.667  0.833  0.200-  51 2.65  76 2.65  71 2.65  53 2.71  78 2.71  18 2.71  48 2.71  13 2.71
                            68 2.71
  74  0.667  0.833  0.366-  71 2.64  76 2.64  51 2.64  77 2.64  52 2.64  72 2.64  69 2.71  79 2.71
                            14 2.71  19 2.71  54 2.71  49 2.71
  75  0.668  0.832  0.529-  52 2.58  77 2.58  72 2.60  55 2.66  80 2.68  50 2.69  20 2.72  15 2.74
                            70 2.75
  76  0.833  0.917  0.283-  79 2.64  19 2.64  74 2.64  73 2.65  18 2.65  78 2.65  16 2.71   1 2.71
                            51 2.71  56 2.71  71 2.71  61 2.71
  77  0.833  0.917  0.449-  75 2.58  80 2.59  20 2.60  74 2.64  19 2.64  79 2.65  72 2.70  17 2.70
                             2 2.71  52 2.71  62 2.71  57 2.71
  78  0.917  0.833  0.200-  56 2.65  61 2.65  76 2.65  63 2.71   3 2.71  58 2.71  53 2.71  73 2.71
                            18 2.71
  79  0.917  0.833  0.366-  76 2.64  61 2.64  56 2.64  57 2.64  62 2.65  77 2.65  19 2.71  74 2.71
                             4 2.71  64 2.71  59 2.71  54 2.71
  80  0.914  0.830  0.529-  57 2.57  77 2.59  62 2.60  55 2.61  60 2.66  75 2.68   5 2.71  65 2.74
                            20 2.76
  81  0.417  0.336  0.618-  83 1.02  84 1.02  82 1.02  30 2.25
  82  0.380  0.401  0.632-  81 1.02
  83  0.518  0.375  0.632-  81 1.02
  84  0.354  0.237  0.634-  81 1.02
 

IMPORTANT INFORMATION: All symmetrisations will be switched off!
NOSYMM: (Re-)initialisation of all symmetry stuff for point group C_1.

 
 
 KPOINTS: K-Spacing Value to Generate K-Mesh: 0.00

Automatic generation of k-mesh.
Space group operators:
 irot       det(A)        alpha          n_x          n_y          n_z        tau_x        tau_y        tau_z
    1     1.000000     0.000000     1.000000     0.000000     0.000000     0.000000     0.000000     0.000000
 
 Subroutine IBZKPT returns following result:
 ===========================================
 
 Found      1 irreducible k-points:
 
 Following reciprocal coordinates:
            Coordinates               Weight
  0.000000  0.000000  0.000000      1.000000
 
 Following cartesian coordinates:
            Coordinates               Weight
  0.000000  0.000000  0.000000      1.000000
 


--------------------------------------------------------------------------------------------------------




 Dimension of arrays:
   k-points           NKPTS =      1   k-points in BZ     NKDIM =      1   number of bands    NBANDS=    676
   number of dos      NEDOS =    301   number of ions     NIONS =     84
   non local maximal  LDIM  =      6   non local SUM 2l+1 LMDIM =     18
   total plane-waves  NPLWV = 504000
   max r-space proj   IRMAX =   2424   max aug-charges    IRDMAX=   9101
   dimension x,y,z NGX =    60 NGY =   60 NGZ =  140
   dimension x,y,z NGXF=   120 NGYF=  120 NGZF=  280
   support grid    NGXF=   120 NGYF=  120 NGZF=  280
   ions per type =              80   1   3
   NGX,Y,Z   is equivalent  to a cutoff of   9.21,  9.21,  9.07 a.u.
   NGXF,Y,Z  is equivalent  to a cutoff of  18.42, 18.42, 18.13 a.u.

 SYSTEM =  Bulk                                    
 POSCAR =  Ru  N  H                                

 Startparameter for this run:
   NWRITE =      2    write-flag & timer
   PREC   = normal    normal or accurate (medium, high low for compatibility)
   ISTART =      1    job   : 0-new  1-cont  2-samecut
   ICHARG =      1    charge: 1-file 2-atom 10-const
   ISPIN  =      1    spin polarized calculation?
   LNONCOLLINEAR =      F non collinear calculations
   LSORBIT =      F    spin-orbit coupling
   INIWAV =      1    electr: 0-lowe 1-rand  2-diag
   LASPH  =      F    aspherical Exc in radial PAW
   METAGGA=      F    non-selfconsistent MetaGGA calc.

 Electronic Relaxation 1
   ENCUT  =  500.0 eV  36.75 Ry    6.06 a.u.  19.75 19.75 46.80*2*pi/ulx,y,z
   ENINI  =  500.0     initial cutoff
   ENAUG  =  627.1 eV  augmentation charge cutoff
   NELM   =    150;   NELMIN=  6; NELMDL=  0     # of ELM steps 
   EDIFF  = 0.1E-04   stopping-criterion for ELM
   LREAL  =      T    real-space projection
   NLSPLINE    = F    spline interpolate recip. space projectors
   LCOMPAT=      F    compatible to vasp.4.4
   GGA_COMPAT  = T    GGA compatible to vasp.4.4-vasp.4.6
   LMAXPAW     = -100 max onsite density
   LMAXMIX     =    2 max onsite mixed and CHGCAR
   VOSKOWN=      0    Vosko Wilk Nusair interpolation
   ROPT   =   -0.00050  -0.00050  -0.00050
 Ionic relaxation
   EDIFFG = -.5E-01   stopping-criterion for IOM
   NSW    =    300    number of steps for IOM
   NBLOCK =      1;   KBLOCK =    300    inner block; outer block 
   IBRION =      2    ionic relax: 0-MD 1-quasi-New 2-CG
   NFREE  =      1    steps in history (QN), initial steepest desc. (CG)
   ISIF   =      2    stress and relaxation
   IWAVPR =     11    prediction:  0-non 1-charg 2-wave 3-comb
   ISYM   =      0    0-nonsym 1-usesym 2-fastsym
   LCORR  =      T    Harris-Foulkes like correction to forces

   POTIM  = 0.2000    time-step for ionic-motion
   TEIN   =    0.0    initial temperature
   TEBEG  =    0.0;   TEEND  =   0.0 temperature during run
   SMASS  =  -3.00    Nose mass-parameter (am)
   estimated Nose-frequenzy (Omega)   =  0.10E-29 period in steps =****** mass=  -0.268E-26a.u.
   SCALEE = 1.0000    scale energy and forces
   NPACO  =    256;   APACO  = 16.0  distance and # of slots for P.C.
   PSTRESS=    0.0 pullay stress

  Mass of Ions in am
   POMASS = 101.07 14.00  1.00
  Ionic Valenz
   ZVAL   =  14.00  5.00  1.00
  Atomic Wigner-Seitz radii
   RWIGS  =  -1.00 -1.00 -1.00
  virtual crystal weights 
   VCA    =   1.00  1.00  1.00
   NELECT =    1128.0000    total number of electrons
   NUPDOWN=      -1.0000    fix difference up-down

 DOS related values:
   EMIN   =  10.00;   EMAX   =-10.00  energy-range for DOS
   EFERMI =   0.00
   ISMEAR =     1;   SIGMA  =   0.10  broadening in eV -4-tet -1-fermi 0-gaus

 Electronic relaxation 2 (details)
   IALGO  =     38    algorithm
   LDIAG  =      T    sub-space diagonalisation (order eigenvalues)
   LSUBROT=      F    optimize rotation matrix (better conditioning)
   TURBO    =      0    0=normal 1=particle mesh
   IRESTART =      0    0=no restart 2=restart with 2 vectors
   NREBOOT  =      0    no. of reboots
   NMIN     =      0    reboot dimension
   EREF     =   0.00    reference energy to select bands
   IMIX   =      4    mixing-type and parameters
     AMIX     =   0.40;   BMIX     =  1.00
     AMIX_MAG =   1.60;   BMIX_MAG =  1.00
     AMIN     =   0.10
     WC   =   100.;   INIMIX=   1;  MIXPRE=   1;  MAXMIX= -45

 Intra band minimization:
   WEIMIN = 0.0010     energy-eigenvalue tresh-hold
   EBREAK =  0.37E-08  absolut break condition
   DEPER  =   0.30     relativ break condition  

   TIME   =   0.40     timestep for ELM

  volume/ion in A,a.u.               =      31.05       209.53
  Fermi-wavevector in a.u.,A,eV,Ry     =   1.238047  2.339569 20.854454  1.532759
  Thomas-Fermi vector in A             =   2.372588
 
 Write flags
   LWAVE        =      T    write WAVECAR
   LDOWNSAMPLE  =      F    k-point downsampling of WAVECAR
   LCHARG       =      T    write CHGCAR
   LVTOT        =      F    write LOCPOT, total local potential
   LVHAR        =      F    write LOCPOT, Hartree potential only
   LELF         =      F    write electronic localiz. function (ELF)
   LORBIT       =      0    0 simple, 1 ext, 2 COOP (PROOUT), +10 PAW based schemes


 Dipole corrections
   LMONO  =      F    monopole corrections only (constant potential shift)
   LDIPOL =      F    correct potential (dipole corrections)
   IDIPOL =      0    1-x, 2-y, 3-z, 4-all directions 
   EPSILON=  1.0000000 bulk dielectric constant

 Exchange correlation treatment:
   GGA     =    --    GGA type
   LEXCH   =     8    internal setting for exchange type
   VOSKOWN=      0    Vosko Wilk Nusair interpolation
   LHFCALC =     F    Hartree Fock is set to
   LHFONE  =     F    Hartree Fock one center treatment
   AEXX    =    0.0000 exact exchange contribution

 Linear response parameters
   LEPSILON=     F    determine dielectric tensor
   LRPA    =     F    only Hartree local field effects (RPA)
   LNABLA  =     F    use nabla operator in PAW spheres
   LVEL    =     F    velocity operator in full k-point grid
   LINTERFAST=   F  fast interpolation
   KINTER  =     0    interpolate to denser k-point grid
   CSHIFT  =0.1000    complex shift for real part using Kramers Kronig
   OMEGAMAX=  -1.0    maximum frequency
   DEG_THRESHOLD= 0.2000000E-02 threshold for treating states as degnerate
   RTIME   =   -0.100 relaxation time in fs
  (WPLASMAI=    0.000 imaginary part of plasma frequency in eV, 0.658/RTIME)
   DFIELD  = 0.0000000 0.0000000 0.0000000 field for delta impulse in time
 
 Orbital magnetization related:
   ORBITALMAG=     F  switch on orbital magnetization
   LCHIMAG   =     F  perturbation theory with respect to B field
   DQ        =  0.001000  dq finite difference perturbation B field
   LLRAUG    =     F  two centre corrections for induced B field



--------------------------------------------------------------------------------------------------------


 conjugate gradient relaxation of ions
   using selective dynamics as specified on POSCAR
   WARNING: If single coordinates had been selected the selection of coordinates
            is made according to the corresponding   d i r e c t   coordinates!
            Don't support selection of single cartesian coordinates -- sorry ...
  !
 charge density and potential will be updated during run
 non-spin polarized calculation
 Variant of blocked Davidson
 Davidson routine will perform the subspace rotation
 perform sub-space diagonalisation
    after iterative eigenvector-optimisation
 modified Broyden-mixing scheme, WC =      100.0
 initial mixing is a Kerker type mixing with AMIX =  0.4000 and BMIX =      1.0000
 Hartree-type preconditioning will be used
 using additional bands          112
 real space projection scheme for non local part
 use partial core corrections
 calculate Harris-corrections to forces 
   (improved forces if not selfconsistent)
 use gradient corrections 
 use of overlap-Matrix (Vanderbilt PP)
 Methfessel and Paxton  Order N= 1 SIGMA  =   0.10


--------------------------------------------------------------------------------------------------------


  energy-cutoff  :      500.00
  volume of cell :     2608.09
      direct lattice vectors                 reciprocal lattice vectors
    10.831299782  0.000000000  0.000000000     0.092325023  0.053303877  0.000000000
    -5.415649891  9.380180767  0.000000000     0.000000000  0.106607754  0.000000000
     0.000000000  0.000000000 25.670299530     0.000000000  0.000000000  0.038955525

  length of vectors
    10.831299782 10.831299782 25.670299530     0.106607754  0.106607754  0.038955525


 
 old parameters found on file WAVECAR:
  energy-cutoff  :      500.00
  volume of cell :     2608.09
      direct lattice vectors                 reciprocal lattice vectors
    10.831299782  0.000000000  0.000000000     0.092325023  0.053303877  0.000000000
    -5.415649891  9.380180767  0.000000000     0.000000000  0.106607754  0.000000000
     0.000000000  0.000000000 25.670299530     0.000000000  0.000000000  0.038955525

  length of vectors

 
 k-points in units of 2pi/SCALE and weight: K-Spacing Value to Generate K-Mesh: 0.00
   0.00000000  0.00000000  0.00000000       1.000
 
 k-points in reciprocal lattice and weights: K-Spacing Value to Generate K-Mesh: 0.00
   0.00000000  0.00000000  0.00000000       1.000
 
 position of ions in fractional coordinates (direct lattice) 
   0.08333000  0.16666999  0.28312999
   0.08310010  0.16658842  0.44906912
   0.16666999  0.08333000  0.20000000
   0.16674578  0.08337214  0.36593818
   0.16448483  0.08016982  0.52911684
   0.33333001  0.16666999  0.28312999
   0.33268135  0.16552059  0.44922609
   0.41666999  0.08333000  0.20000000
   0.41661863  0.08343092  0.36592814
   0.41459227  0.07861538  0.52916287
   0.58332998  0.16666999  0.28312999
   0.58346186  0.16645950  0.44904046
   0.66667002  0.08333000  0.20000000
   0.66660228  0.08333797  0.36584053
   0.67104830  0.08722243  0.52930310
   0.83332998  0.16666999  0.28312999
   0.83333571  0.16660612  0.44875155
   0.91667002  0.08333000  0.20000000
   0.91671896  0.08329042  0.36577232
   0.91565861  0.08561053  0.52929615
   0.08333000  0.41666999  0.28312999
   0.08326350  0.41702742  0.44893884
   0.16666999  0.33333001  0.20000000
   0.16672325  0.33344196  0.36592976
   0.16207923  0.33282034  0.52909579
   0.33333001  0.41666999  0.28312999
   0.33256886  0.41712347  0.44920961
   0.41666999  0.33333001  0.20000000
   0.41658213  0.33329092  0.36608255
   0.41537070  0.33203586  0.53085042
   0.58332998  0.41666999  0.28312999
   0.58425010  0.41705538  0.44922468
   0.66667002  0.33333001  0.20000000
   0.66658240  0.33333732  0.36593608
   0.67165252  0.33288759  0.52915097
   0.83332998  0.41666999  0.28312999
   0.83351905  0.41688808  0.44888560
   0.91667002  0.33333001  0.20000000
   0.91672537  0.33344741  0.36576829
   0.91403276  0.32980449  0.52916883
   0.08333000  0.66667002  0.28312999
   0.08327011  0.66683863  0.44903830
   0.16666999  0.58332998  0.20000000
   0.16653623  0.58349095  0.36580017
   0.17105373  0.58581571  0.52920674
   0.33333001  0.66667002  0.28312999
   0.33324456  0.66694501  0.44876780
   0.41666999  0.58332998  0.20000000
   0.41662143  0.58325825  0.36583063
   0.41520354  0.58825988  0.52910161
   0.58332998  0.66667002  0.28312999
   0.58343249  0.66708525  0.44902274
   0.66667002  0.58332998  0.20000000
   0.66650929  0.58323890  0.36585405
   0.67274497  0.58908150  0.52924299
   0.83332998  0.66667002  0.28312999
   0.83338316  0.66683624  0.44878366
   0.91667002  0.58332998  0.20000000
   0.91682953  0.58343674  0.36577967
   0.91336703  0.58401513  0.52911693
   0.08333000  0.91667002  0.28312999
   0.08303943  0.91644973  0.44900891
   0.16666999  0.83332998  0.20000000
   0.16648763  0.83318156  0.36579846
   0.16918744  0.83529523  0.52924790
   0.33333001  0.91667002  0.28312999
   0.33327351  0.91650956  0.44888763
   0.41666999  0.83332998  0.20000000
   0.41691832  0.83354873  0.36578574
   0.41303683  0.83020443  0.52915142
   0.58332998  0.91667002  0.28312999
   0.58379036  0.91701571  0.44901216
   0.66667002  0.83332998  0.20000000
   0.66668190  0.83344647  0.36591919
   0.66773200  0.83222030  0.52926153
   0.83332998  0.91667002  0.28312999
   0.83317793  0.91694375  0.44894433
   0.91667002  0.83332998  0.20000000
   0.91662336  0.83349466  0.36581304
   0.91393031  0.83013514  0.52914465
   0.41671357  0.33635327  0.61837532
   0.37989277  0.40101127  0.63167434
   0.51798393  0.37497994  0.63218281
   0.35381189  0.23700033  0.63375549
 
 position of ions in cartesian coordinates  (Angst):
  -0.00005415  1.56339468  7.26803165
  -0.00210244  1.56262949 11.52773872
   1.35396659  0.78165044  5.13405998
   1.35455925  0.78204577  9.39374264
   1.34741280  0.75200743 13.58258775
   2.70777087  1.56339468  7.26803165
   2.70696984  1.55261305 11.53176822
   4.06179153  0.78165044  5.13405998
   4.06068862  0.78259714  9.39348484
   4.06481974  0.73742650 13.58376935
   5.41559550  1.56339468  7.26803165
   5.41816394  1.56142016 11.52700300
   6.76961679  0.78165044  5.13405998
   6.76883982  0.78172524  9.39123592
   6.79595912  0.81816214 13.58736911
   8.12342045  1.56339468  7.26803165
   8.12382844  1.56279556 11.51958664
   9.47744174  0.78165044  5.13405998
   9.47818607  0.78127921  9.38948495
   9.45413623  0.80304223 13.58719069
  -1.35396662  3.90843987  7.26803165
  -1.35662253  3.91179258 11.52439461
   0.00005408  3.12669570  5.13405998
   0.00002457  3.12774587  9.39352653
  -0.04690975  3.12191493 13.58204730
   1.35385840  3.90843987  7.26803165
   1.34315835  3.91269359 11.53134526
   2.70787902  3.12669570  5.13405998
   2.70713902  3.12632910  9.39744862
   2.70081464  3.11455639 13.62708921
   4.06168303  3.90843987  7.26803165
   4.06956207  3.91205484 11.53173203
   5.41570428  3.12669570  5.13405998
   5.41471557  3.12676431  9.39368881
   5.47206716  3.12254576 13.58346384
   6.76950797  3.90843987  7.26803165
   6.77037483  3.91048559 11.52302778
   8.12352923  3.12669570  5.13405998
   8.12349287  3.12779699  9.38938168
   8.11405714  3.09362576 13.58392249
  -2.70787925  6.25348534  7.26803165
  -2.70944097  6.25506687 11.52694764
  -1.35385824  5.47174062  5.13405998
  -1.35617887  5.47325061  9.39019991
  -1.31983859  5.49505724 13.58489548
  -0.00005423  6.25348534  7.26803165
  -0.00246888  6.25606471 11.52000391
   1.35396671  5.47174062  5.13405998
   1.35382909  5.47106784  9.39098173
   1.31138444  5.51798397 13.58219672
   2.70777040  6.25348534  7.26803165
   2.70663204  6.25738024 11.52654814
   4.06179196  5.47174062  5.13405998
   4.06054420  5.47088633  9.39158295
   4.09644330  5.52569094 13.58582603
   5.41559534  6.25348534  7.26803165
   5.41527124  6.25504445 11.52041092
   6.76961691  5.47174062  5.13405998
   6.77076635  5.47274211  9.38967372
   6.73013061  5.47816750 13.58259002
  -4.06179173  8.59853053  7.26803165
  -4.06374598  8.59646415 11.52619330
  -2.70777071  7.81678581  5.13405998
  -2.70894220  7.81539361  9.39015604
  -2.69114671  7.83522028 13.58595208
  -1.35396671  8.59853053  7.26803165
  -1.35370961  8.59702532 11.52307998
   0.00005423  7.81678581  5.13405998
   0.00155927  7.81883776  9.38982948
  -0.02237075  7.78746761 13.58347549
   1.35385793  8.59853053  7.26803165
   1.35697240  8.60177314 11.52627677
   2.70787949  7.81678581  5.13405998
   2.70737723  7.81787856  9.39325532
   2.72539166  7.80637688 13.58630201
   4.06168287  8.59853053  7.26803165
   4.05855364  8.60109813 11.52453541
   5.41570444  7.81678581  5.13405998
   5.41430712  7.81833059  9.39053032
   5.40333186  7.78681765 13.58330176
   2.69197804  3.15505448 15.87387956
   1.94299589  3.76155818 16.21526944
   3.57967912  3.51737964 16.22832205
   2.54873182  2.22310595 16.26869335
 


--------------------------------------------------------------------------------------------------------


 use parallel FFT for orbitals z direction half grid
 k-point  1 :   0.0000 0.0000 0.0000  plane waves:   33083

 maximum and minimum number of plane-waves per node :      2073     2063

 maximum number of plane-waves:     33083
 maximum index in each direction: 
   IXMAX=   19   IYMAX=   19   IZMAX=   46
   IXMIN=  -19   IYMIN=  -19   IZMIN=    0


 real space projection operators:
  total allocation   :      26060.41 KBytes
  max/ min on nodes  :       1966.03       1121.02


 parallel 3D FFT for wavefunctions:
    minimum data exchange during FFTs selected (reduces bandwidth)
 parallel 3D FFT for charge:
    minimum data exchange during FFTs selected (reduces bandwidth)


 total amount of memory used by VASP MPI-rank0    46319. kBytes
=======================================================================

   base      :      30000. kBytes
   nonlr-proj:       1889. kBytes
   fftplans  :       2965. kBytes
   grid      :       5671. kBytes
   one-center:         46. kBytes
   wavefun   :       5748. kBytes
 
     INWAV:  cpu time    0.4667: real time    1.0089
 Broyden mixing: mesh for mixing (old mesh)
   NGX = 39   NGY = 39   NGZ = 93
  (NGX  =120   NGY  =120   NGZ  =280)
  gives a total of 141453 points

 initial charge density was supplied:
 number of electron    1128.0000913 magnetization 
 keeping initial charge density in first step


--------------------------------------------------------------------------------------------------------


 Maximum index for non-local projection operator          212
 Maximum index for augmentation-charges          376 (set IRDMAX)


--------------------------------------------------------------------------------------------------------


 First call to EWALD:  gamma=   0.129
 Maximum number of real-space cells 4x 4x 2
 Maximum number of reciprocal cells 2x 2x 5

    FEWALD:  cpu time    0.0026: real time    0.0026


--------------------------------------- Iteration      1(   1)  ---------------------------------------


    POTLOK:  cpu time    0.0391: real time    0.0425
    SETDIJ:  cpu time    0.0068: real time    0.0075
     EDDAV:  cpu time    2.1181: real time    2.1839
       DOS:  cpu time    0.0008: real time    0.0013
    CHARGE:  cpu time    0.0425: real time    0.0429
    MIXING:  cpu time    0.0020: real time    0.0034
    --------------------------------------------
      LOOP:  cpu time    2.2094: real time    2.2814

 eigenvalue-minimisations  :  1492
 total energy-change (2. order) :-0.7266571E+03  (-0.5511659E+02)
 number of electron    1128.0000804 magnetization 
 augmentation part      411.8827199 magnetization 

 Broyden mixing:
  rms(total) = 0.51204E+00    rms(broyden)= 0.51184E+00
  rms(prec ) = 0.52929E+00
  weight for this iteration     100.00

 Free energy of the ion-electron system (eV)
  ---------------------------------------------------
  alpha Z        PSCENC =      4286.69391093
  Ewald energy   TEWEN  =    709707.10489467
  -Hartree energ DENC   =   -850938.77728824
  -exchange      EXHF   =         0.00000000
  -V(xc)+E(xc)   XCENC  =      4582.83198517
  PAW double counting   =    142206.39940766  -141420.51014969
  entropy T*S    EENTRO =        -0.03403101
  eigenvalues    EBANDS =    -19329.73959161
  atomic energy  EATOM  =    150179.37374676
  Solvation  Ediel_sol  =         0.00000000
  ---------------------------------------------------
  free energy    TOTEN  =      -726.65711537 eV

  energy without entropy =     -726.62308436  energy(sigma->0) =     -726.64577170


--------------------------------------------------------------------------------------------------------




--------------------------------------- Iteration      1(   2)  ---------------------------------------


    POTLOK:  cpu time    0.0445: real time    0.0451
    SETDIJ:  cpu time    0.0045: real time    0.0046
     EDDAV:  cpu time    1.9196: real time    1.9328
       DOS:  cpu time    0.0006: real time    0.0006
    CHARGE:  cpu time    0.0440: real time    0.0443
    MIXING:  cpu time    0.0013: real time    0.0102
    --------------------------------------------
      LOOP:  cpu time    2.0145: real time    2.0376

 eigenvalue-minimisations  :  1360
 total energy-change (2. order) :-0.5555997E+01  (-0.4459782E+01)
 number of electron    1128.0000818 magnetization 
 augmentation part      412.1533868 magnetization 

 Broyden mixing:
  rms(total) = 0.11502E+01    rms(broyden)= 0.11502E+01
  rms(prec ) = 0.18399E+01
  weight for this iteration     100.00

 eigenvalues of (default mixing * dielectric matrix)
  average eigenvalue GAMMA=   0.2492
  0.2492

 Free energy of the ion-electron system (eV)
  ---------------------------------------------------
  alpha Z        PSCENC =      4286.69391093
  Ewald energy   TEWEN  =    709707.10489467
  -Hartree energ DENC   =   -850912.80968843
  -exchange      EXHF   =         0.00000000
  -V(xc)+E(xc)   XCENC  =      4582.50860512
  PAW double counting   =    142198.29598529  -141412.66307912
  entropy T*S    EENTRO =         0.00161138
  eigenvalues    EBANDS =    -19360.71909857
  atomic energy  EATOM  =    150179.37374676
  Solvation  Ediel_sol  =         0.00000000
  ---------------------------------------------------
  free energy    TOTEN  =      -732.21311197 eV

  energy without entropy =     -732.21472335  energy(sigma->0) =     -732.21364910


--------------------------------------------------------------------------------------------------------




--------------------------------------- Iteration      1(   3)  ---------------------------------------


    POTLOK:  cpu time    0.0333: real time    0.0337
    SETDIJ:  cpu time    0.0045: real time    0.0045
     EDDAV:  cpu time    2.2823: real time    2.2974
       DOS:  cpu time    0.0006: real time    0.0006
    CHARGE:  cpu time    0.0436: real time    0.0439
    MIXING:  cpu time    0.0015: real time    0.0015
    --------------------------------------------
      LOOP:  cpu time    2.3658: real time    2.3816

 eigenvalue-minimisations  :  1696
 total energy-change (2. order) :-0.7619565E+00  (-0.2744491E+00)
 number of electron    1128.0000791 magnetization 
 augmentation part      412.1025111 magnetization 

 Broyden mixing:
  rms(total) = 0.12864E+01    rms(broyden)= 0.12864E+01
  rms(prec ) = 0.22734E+01
  weight for this iteration     100.00

 eigenvalues of (default mixing * dielectric matrix)
  average eigenvalue GAMMA=   0.3204
  0.5770  0.0638

 Free energy of the ion-electron system (eV)
  ---------------------------------------------------
  alpha Z        PSCENC =      4286.69391093
  Ewald energy   TEWEN  =    709707.10489467
  -Hartree energ DENC   =   -850930.44785912
  -exchange      EXHF   =         0.00000000
  -V(xc)+E(xc)   XCENC  =      4582.54758490
  PAW double counting   =    142180.40939306  -141394.58500581
  entropy T*S    EENTRO =        -0.07306575
  eigenvalues    EBANDS =    -19343.99866808
  atomic energy  EATOM  =    150179.37374676
  Solvation  Ediel_sol  =         0.00000000
  ---------------------------------------------------
  free energy    TOTEN  =      -732.97506844 eV

  energy without entropy =     -732.90200269  energy(sigma->0) =     -732.95071319


--------------------------------------------------------------------------------------------------------




--------------------------------------- Iteration      1(   4)  ---------------------------------------


    POTLOK:  cpu time    0.0335: real time    0.0339
    SETDIJ:  cpu time    0.0045: real time    0.0045
     EDDAV:  cpu time    2.2840: real time    2.2992
       DOS:  cpu time    0.0006: real time    0.0006
    CHARGE:  cpu time    0.0438: real time    0.0440
    MIXING:  cpu time    0.0013: real time    0.0013
    --------------------------------------------
      LOOP:  cpu time    2.3677: real time    2.3836

 eigenvalue-minimisations  :  1688
 total energy-change (2. order) : 0.1443630E+01  (-0.5624645E-01)
 number of electron    1128.0000805 magnetization 
 augmentation part      411.9658891 magnetization 

 Broyden mixing:
  rms(total) = 0.67461E+00    rms(broyden)= 0.67455E+00
  rms(prec ) = 0.92210E+00
  weight for this iteration     100.00

 eigenvalues of (default mixing * dielectric matrix)
  average eigenvalue GAMMA=   0.3068
  0.6829  0.1794  0.0582

 Free energy of the ion-electron system (eV)
  ---------------------------------------------------
  alpha Z        PSCENC =      4286.69391093
  Ewald energy   TEWEN  =    709707.10489467
  -Hartree energ DENC   =   -850989.64645873
  -exchange      EXHF   =         0.00000000
  -V(xc)+E(xc)   XCENC  =      4582.59297151
  PAW double counting   =    142133.82927190  -141347.58430724
  entropy T*S    EENTRO =         0.00190577
  eigenvalues    EBANDS =    -19283.89737370
  atomic energy  EATOM  =    150179.37374676
  Solvation  Ediel_sol  =         0.00000000
  ---------------------------------------------------
  free energy    TOTEN  =      -731.53143813 eV

  energy without entropy =     -731.53334390  energy(sigma->0) =     -731.53207339


--------------------------------------------------------------------------------------------------------




--------------------------------------- Iteration      1(   5)  ---------------------------------------


    POTLOK:  cpu time    0.0337: real time    0.0339
    SETDIJ:  cpu time    0.0045: real time    0.0045
     EDDAV:  cpu time    2.1961: real time    2.2106
       DOS:  cpu time    0.0006: real time    0.0006
    CHARGE:  cpu time    0.0419: real time    0.0421
    MIXING:  cpu time    0.0013: real time    0.0013
    --------------------------------------------
      LOOP:  cpu time    2.2780: real time    2.2930

 eigenvalue-minimisations  :  1636
 total energy-change (2. order) : 0.4768985E+00  (-0.4956627E-01)
 number of electron    1128.0000803 magnetization 
 augmentation part      412.0283318 magnetization 

 Broyden mixing:
  rms(total) = 0.27437E+00    rms(broyden)= 0.27435E+00
  rms(prec ) = 0.33277E+00
  weight for this iteration     100.00

 eigenvalues of (default mixing * dielectric matrix)
  average eigenvalue GAMMA=   0.3233
  0.5458  0.5458  0.0589  0.1427

 Free energy of the ion-electron system (eV)
  ---------------------------------------------------
  alpha Z        PSCENC =      4286.69391093
  Ewald energy   TEWEN  =    709707.10489467
  -Hartree energ DENC   =   -850920.71256138
  -exchange      EXHF   =         0.00000000
  -V(xc)+E(xc)   XCENC  =      4582.71409447
  PAW double counting   =    142092.75976470  -141306.26430597
  entropy T*S    EENTRO =        -0.04216909
  eigenvalues    EBANDS =    -19352.68191468
  atomic energy  EATOM  =    150179.37374676
  Solvation  Ediel_sol  =         0.00000000
  ---------------------------------------------------
  free energy    TOTEN  =      -731.05453959 eV

  energy without entropy =     -731.01237050  energy(sigma->0) =     -731.04048323


--------------------------------------------------------------------------------------------------------




--------------------------------------- Iteration      1(   6)  ---------------------------------------


    POTLOK:  cpu time    0.0329: real time    0.0333
    SETDIJ:  cpu time    0.0045: real time    0.0045
     EDDAV:  cpu time    2.1738: real time    2.1882
       DOS:  cpu time    0.0006: real time    0.0006
    CHARGE:  cpu time    0.0437: real time    0.0439
    MIXING:  cpu time    0.0015: real time    0.0015
    --------------------------------------------
      LOOP:  cpu time    2.2570: real time    2.2721

 eigenvalue-minimisations  :  1584
 total energy-change (2. order) : 0.4029782E-01  (-0.2062600E-01)
 number of electron    1128.0000805 magnetization 
 augmentation part      411.9851436 magnetization 

 Broyden mixing:
  rms(total) = 0.20373E+00    rms(broyden)= 0.20372E+00
  rms(prec ) = 0.22748E+00
  weight for this iteration     100.00

 eigenvalues of (default mixing * dielectric matrix)
  average eigenvalue GAMMA=   0.4546
  0.9252  0.9252  0.2298  0.0589  0.1340

 Free energy of the ion-electron system (eV)
  ---------------------------------------------------
  alpha Z        PSCENC =      4286.69391093
  Ewald energy   TEWEN  =    709707.10489467
  -Hartree energ DENC   =   -850940.57956946
  -exchange      EXHF   =         0.00000000
  -V(xc)+E(xc)   XCENC  =      4582.70535094
  PAW double counting   =    142071.64695017  -141285.04352124
  entropy T*S    EENTRO =        -0.03343875
  eigenvalues    EBANDS =    -19332.88256578
  atomic energy  EATOM  =    150179.37374676
  Solvation  Ediel_sol  =         0.00000000
  ---------------------------------------------------
  free energy    TOTEN  =      -731.01424176 eV

  energy without entropy =     -730.98080302  energy(sigma->0) =     -731.00309551


--------------------------------------------------------------------------------------------------------




--------------------------------------- Iteration      1(   7)  ---------------------------------------


    POTLOK:  cpu time    0.0326: real time    0.0333
    SETDIJ:  cpu time    0.0045: real time    0.0045
     EDDAV:  cpu time    2.1198: real time    2.1338
       DOS:  cpu time    0.0006: real time    0.0006
    CHARGE:  cpu time    0.0433: real time    0.0435
    MIXING:  cpu time    0.0015: real time    0.0015
    --------------------------------------------
      LOOP:  cpu time    2.2022: real time    2.2172

 eigenvalue-minimisations  :  1564
 total energy-change (2. order) :-0.2346065E-02  (-0.1155517E-01)
 number of electron    1128.0000804 magnetization 
 augmentation part      412.0030810 magnetization 

 Broyden mixing:
  rms(total) = 0.18652E+00    rms(broyden)= 0.18652E+00
  rms(prec ) = 0.21472E+00
  weight for this iteration     100.00

 eigenvalues of (default mixing * dielectric matrix)
  average eigenvalue GAMMA=   0.4846
  1.0967  1.0967  0.3126  0.0589  0.2079  0.1349

 Free energy of the ion-electron system (eV)
  ---------------------------------------------------
  alpha Z        PSCENC =      4286.69391093
  Ewald energy   TEWEN  =    709707.10489467
  -Hartree energ DENC   =   -850934.67625584
  -exchange      EXHF   =         0.00000000
  -V(xc)+E(xc)   XCENC  =      4582.69520853
  PAW double counting   =    142014.81387418  -141228.05860121
  entropy T*S    EENTRO =        -0.02667023
  eigenvalues    EBANDS =    -19338.93669562
  atomic energy  EATOM  =    150179.37374676
  Solvation  Ediel_sol  =         0.00000000
  ---------------------------------------------------
  free energy    TOTEN  =      -731.01658783 eV

  energy without entropy =     -730.98991760  energy(sigma->0) =     -731.00769775


--------------------------------------------------------------------------------------------------------




--------------------------------------- Iteration      1(   8)  ---------------------------------------


    POTLOK:  cpu time    0.0326: real time    0.0331
    SETDIJ:  cpu time    0.0044: real time    0.0045
     EDDAV:  cpu time    2.2151: real time    2.2292
       DOS:  cpu time    0.0005: real time    0.0005
    CHARGE:  cpu time    0.0426: real time    0.0428
    MIXING:  cpu time    0.0017: real time    0.0017
    --------------------------------------------
      LOOP:  cpu time    2.2969: real time    2.3118

 eigenvalue-minimisations  :  1616
 total energy-change (2. order) : 0.1903203E-01  (-0.1010172E-01)
 number of electron    1128.0000804 magnetization 
 augmentation part      412.0030285 magnetization 

 Broyden mixing:
  rms(total) = 0.12494E+00    rms(broyden)= 0.12494E+00
  rms(prec ) = 0.14696E+00
  weight for this iteration     100.00

 eigenvalues of (default mixing * dielectric matrix)
  average eigenvalue GAMMA=   0.5612
  1.3453  1.3453  0.6224  0.0589  0.2478  0.1341  0.1748

 Free energy of the ion-electron system (eV)
  ---------------------------------------------------
  alpha Z        PSCENC =      4286.69391093
  Ewald energy   TEWEN  =    709707.10489467
  -Hartree energ DENC   =   -850938.11395498
  -exchange      EXHF   =         0.00000000
  -V(xc)+E(xc)   XCENC  =      4582.68261955
  PAW double counting   =    141980.55021793  -141193.68562765
  entropy T*S    EENTRO =        -0.03435971
  eigenvalues    EBANDS =    -19335.56900330
  atomic energy  EATOM  =    150179.37374676
  Solvation  Ediel_sol  =         0.00000000
  ---------------------------------------------------
  free energy    TOTEN  =      -730.99755580 eV

  energy without entropy =     -730.96319610  energy(sigma->0) =     -730.98610257


--------------------------------------------------------------------------------------------------------




--------------------------------------- Iteration      1(   9)  ---------------------------------------


    POTLOK:  cpu time    0.0332: real time    0.0337
    SETDIJ:  cpu time    0.0045: real time    0.0045
     EDDAV:  cpu time    2.1289: real time    2.1428
       DOS:  cpu time    0.0006: real time    0.0006
    CHARGE:  cpu time    0.0422: real time    0.0424
    MIXING:  cpu time    0.0021: real time    0.0021
    --------------------------------------------
      LOOP:  cpu time    2.2115: real time    2.2261

 eigenvalue-minimisations  :  1572
 total energy-change (2. order) :-0.7839197E-02  (-0.7276093E-02)
 number of electron    1128.0000805 magnetization 
 augmentation part      412.0070840 magnetization 

 Broyden mixing:
  rms(total) = 0.13458E+00    rms(broyden)= 0.13457E+00
  rms(prec ) = 0.15785E+00
  weight for this iteration     100.00

 eigenvalues of (default mixing * dielectric matrix)
  average eigenvalue GAMMA=   0.6066
  2.1437  1.0204  0.8304  0.0589  0.2868  0.2178  0.1344  0.1602

 Free energy of the ion-electron system (eV)
  ---------------------------------------------------
  alpha Z        PSCENC =      4286.69391093
  Ewald energy   TEWEN  =    709707.10489467
  -Hartree energ DENC   =   -850936.83150500
  -exchange      EXHF   =         0.00000000
  -V(xc)+E(xc)   XCENC  =      4582.69977890
  PAW double counting   =    141933.22826402  -141146.16308583
  entropy T*S    EENTRO =        -0.04632551
  eigenvalues    EBANDS =    -19337.06507394
  atomic energy  EATOM  =    150179.37374676
  Solvation  Ediel_sol  =         0.00000000
  ---------------------------------------------------
  free energy    TOTEN  =      -731.00539500 eV

  energy without entropy =     -730.95906949  energy(sigma->0) =     -730.98995316


--------------------------------------------------------------------------------------------------------




--------------------------------------- Iteration      1(  10)  ---------------------------------------


    POTLOK:  cpu time    0.0332: real time    0.0337
    SETDIJ:  cpu time    0.0048: real time    0.0048
     EDDAV:  cpu time    2.1517: real time    2.1657
       DOS:  cpu time    0.0006: real time    0.0006
    CHARGE:  cpu time    0.0428: real time    0.0430
    MIXING:  cpu time    0.0018: real time    0.0018
    --------------------------------------------
      LOOP:  cpu time    2.2348: real time    2.2496

 eigenvalue-minimisations  :  1592
 total energy-change (2. order) : 0.1618757E-01  (-0.3816061E-02)
 number of electron    1128.0000804 magnetization 
 augmentation part      412.0098222 magnetization 

 Broyden mixing:
  rms(total) = 0.60631E-01    rms(broyden)= 0.60627E-01
  rms(prec ) = 0.73642E-01
  weight for this iteration     100.00

 eigenvalues of (default mixing * dielectric matrix)
  average eigenvalue GAMMA=   0.5718
  2.2093  0.9764  0.8293  0.3302  0.0589  0.2494  0.2019  0.1339  0.1572

 Free energy of the ion-electron system (eV)
  ---------------------------------------------------
  alpha Z        PSCENC =      4286.69391093
  Ewald energy   TEWEN  =    709707.10489467
  -Hartree energ DENC   =   -850940.15607770
  -exchange      EXHF   =         0.00000000
  -V(xc)+E(xc)   XCENC  =      4582.73088509
  PAW double counting   =    141889.80004827  -141102.52867953
  entropy T*S    EENTRO =        -0.03511328
  eigenvalues    EBANDS =    -19333.97282264
  atomic energy  EATOM  =    150179.37374676
  Solvation  Ediel_sol  =         0.00000000
  ---------------------------------------------------
  free energy    TOTEN  =      -730.98920743 eV

  energy without entropy =     -730.95409415  energy(sigma->0) =     -730.97750300


--------------------------------------------------------------------------------------------------------




--------------------------------------- Iteration      1(  11)  ---------------------------------------


    POTLOK:  cpu time    0.0323: real time    0.0327
    SETDIJ:  cpu time    0.0044: real time    0.0044
     EDDAV:  cpu time    2.1943: real time    2.2087
       DOS:  cpu time    0.0006: real time    0.0006
    CHARGE:  cpu time    0.0444: real time    0.0446
    MIXING:  cpu time    0.0018: real time    0.0018
    --------------------------------------------
      LOOP:  cpu time    2.2778: real time    2.2929

 eigenvalue-minimisations  :  1612
 total energy-change (2. order) : 0.2818352E-02  (-0.8068833E-03)
 number of electron    1128.0000804 magnetization 
 augmentation part      412.0081795 magnetization 

 Broyden mixing:
  rms(total) = 0.28448E-01    rms(broyden)= 0.28446E-01
  rms(prec ) = 0.38362E-01
  weight for this iteration     100.00

 eigenvalues of (default mixing * dielectric matrix)
  average eigenvalue GAMMA=   0.6070
  2.2430  0.9419  0.9419  0.9000  0.0589  0.2871  0.2227  0.1342  0.1845  0.1563

 Free energy of the ion-electron system (eV)
  ---------------------------------------------------
  alpha Z        PSCENC =      4286.69391093
  Ewald energy   TEWEN  =    709707.10489467
  -Hartree energ DENC   =   -850940.40259280
  -exchange      EXHF   =         0.00000000
  -V(xc)+E(xc)   XCENC  =      4582.74209234
  PAW double counting   =    141885.68422310  -141098.37745730
  entropy T*S    EENTRO =        -0.03654103
  eigenvalues    EBANDS =    -19333.76866574
  atomic energy  EATOM  =    150179.37374676
  Solvation  Ediel_sol  =         0.00000000
  ---------------------------------------------------
  free energy    TOTEN  =      -730.98638908 eV

  energy without entropy =     -730.94984805  energy(sigma->0) =     -730.97420874


--------------------------------------------------------------------------------------------------------




--------------------------------------- Iteration      1(  12)  ---------------------------------------


    POTLOK:  cpu time    0.0442: real time    0.0547
    SETDIJ:  cpu time    0.0045: real time    0.0045
     EDDAV:  cpu time    2.2050: real time    2.2184
       DOS:  cpu time    0.0006: real time    0.0006
    CHARGE:  cpu time    0.0423: real time    0.0425
    MIXING:  cpu time    0.0018: real time    0.0018
    --------------------------------------------
      LOOP:  cpu time    2.2983: real time    2.3226

 eigenvalue-minimisations  :  1616
 total energy-change (2. order) :-0.1803950E-03  (-0.2442039E-03)
 number of electron    1128.0000804 magnetization 
 augmentation part      412.0025063 magnetization 

 Broyden mixing:
  rms(total) = 0.28737E-01    rms(broyden)= 0.28737E-01
  rms(prec ) = 0.34301E-01
  weight for this iteration     100.00

 eigenvalues of (default mixing * dielectric matrix)
  average eigenvalue GAMMA=   0.6095
  2.2526  1.1558  1.1558  0.8888  0.0589  0.2891  0.2291  0.2102  0.1341  0.1739
  0.1559

 Free energy of the ion-electron system (eV)
  ---------------------------------------------------
  alpha Z        PSCENC =      4286.69391093
  Ewald energy   TEWEN  =    709707.10489467
  -Hartree energ DENC   =   -850941.43474024
  -exchange      EXHF   =         0.00000000
  -V(xc)+E(xc)   XCENC  =      4582.76811803
  PAW double counting   =    141882.82892572  -141095.46039612
  entropy T*S    EENTRO =        -0.03693221
  eigenvalues    EBANDS =    -19332.82409700
  atomic energy  EATOM  =    150179.37374676
  Solvation  Ediel_sol  =         0.00000000
  ---------------------------------------------------
  free energy    TOTEN  =      -730.98656947 eV

  energy without entropy =     -730.94963726  energy(sigma->0) =     -730.97425873


--------------------------------------------------------------------------------------------------------




--------------------------------------- Iteration      1(  13)  ---------------------------------------


    POTLOK:  cpu time    0.0367: real time    0.0423
    SETDIJ:  cpu time    0.0045: real time    0.0046
     EDDAV:  cpu time    2.1459: real time    2.1589
       DOS:  cpu time    0.0006: real time    0.0006
    CHARGE:  cpu time    0.0418: real time    0.0420
    MIXING:  cpu time    0.0018: real time    0.0018
    --------------------------------------------
      LOOP:  cpu time    2.2314: real time    2.2502

 eigenvalue-minimisations  :  1580
 total energy-change (2. order) : 0.6958407E-03  (-0.1341209E-03)
 number of electron    1128.0000804 magnetization 
 augmentation part      411.9997762 magnetization 

 Broyden mixing:
  rms(total) = 0.11867E-01    rms(broyden)= 0.11866E-01
  rms(prec ) = 0.13834E-01
  weight for this iteration     100.00

 eigenvalues of (default mixing * dielectric matrix)
  average eigenvalue GAMMA=   0.6002
  2.2487  1.2184  1.2184  0.8827  0.4006  0.0589  0.2977  0.2293  0.1967  0.1341
  0.1631  0.1537

 Free energy of the ion-electron system (eV)
  ---------------------------------------------------
  alpha Z        PSCENC =      4286.69391093
  Ewald energy   TEWEN  =    709707.10489467
  -Hartree energ DENC   =   -850941.96229823
  -exchange      EXHF   =         0.00000000
  -V(xc)+E(xc)   XCENC  =      4582.78450792
  PAW double counting   =    141881.23921232  -141093.83561551
  entropy T*S    EENTRO =        -0.03823810
  eigenvalues    EBANDS =    -19332.34599439
  atomic energy  EATOM  =    150179.37374676
  Solvation  Ediel_sol  =         0.00000000
  ---------------------------------------------------
  free energy    TOTEN  =      -730.98587363 eV

  energy without entropy =     -730.94763553  energy(sigma->0) =     -730.97312760


--------------------------------------------------------------------------------------------------------




--------------------------------------- Iteration      1(  14)  ---------------------------------------


    POTLOK:  cpu time    0.0323: real time    0.0327
    SETDIJ:  cpu time    0.0045: real time    0.0046
     EDDAV:  cpu time    2.1415: real time    2.1544
       DOS:  cpu time    0.0006: real time    0.0006
    CHARGE:  cpu time    0.0416: real time    0.0418
    MIXING:  cpu time    0.0019: real time    0.0019
    --------------------------------------------
      LOOP:  cpu time    2.2224: real time    2.2359

 eigenvalue-minimisations  :  1576
 total energy-change (2. order) : 0.4765257E-04  (-0.4673733E-04)
 number of electron    1128.0000804 magnetization 
 augmentation part      411.9976561 magnetization 

 Broyden mixing:
  rms(total) = 0.84872E-02    rms(broyden)= 0.84868E-02
  rms(prec ) = 0.99979E-02
  weight for this iteration     100.00

 eigenvalues of (default mixing * dielectric matrix)
  average eigenvalue GAMMA=   0.6361
  2.2621  1.3935  1.3935  0.8792  0.8792  0.0589  0.2963  0.2489  0.2231  0.1341
  0.1885  0.1590  0.1527

 Free energy of the ion-electron system (eV)
  ---------------------------------------------------
  alpha Z        PSCENC =      4286.69391093
  Ewald energy   TEWEN  =    709707.10489467
  -Hartree energ DENC   =   -850942.66185211
  -exchange      EXHF   =         0.00000000
  -V(xc)+E(xc)   XCENC  =      4582.78787946
  PAW double counting   =    141880.57395886  -141093.16442426
  entropy T*S    EENTRO =        -0.03714993
  eigenvalues    EBANDS =    -19331.65679036
  atomic energy  EATOM  =    150179.37374676
  Solvation  Ediel_sol  =         0.00000000
  ---------------------------------------------------
  free energy    TOTEN  =      -730.98582598 eV

  energy without entropy =     -730.94867605  energy(sigma->0) =     -730.97344267


--------------------------------------------------------------------------------------------------------




--------------------------------------- Iteration      1(  15)  ---------------------------------------


    POTLOK:  cpu time    0.0330: real time    0.0334
    SETDIJ:  cpu time    0.0044: real time    0.0044
     EDDAV:  cpu time    2.1071: real time    2.1196
       DOS:  cpu time    0.0006: real time    0.0006
    CHARGE:  cpu time    0.0427: real time    0.0429
    MIXING:  cpu time    0.0025: real time    0.0025
    --------------------------------------------
      LOOP:  cpu time    2.1903: real time    2.2034

 eigenvalue-minimisations  :  1544
 total energy-change (2. order) :-0.4924956E-04  (-0.2582208E-04)
 number of electron    1128.0000804 magnetization 
 augmentation part      411.9971911 magnetization 

 Broyden mixing:
  rms(total) = 0.83566E-02    rms(broyden)= 0.83564E-02
  rms(prec ) = 0.97233E-02
  weight for this iteration     100.00

 eigenvalues of (default mixing * dielectric matrix)
  average eigenvalue GAMMA=   0.6331
  2.2892  1.5012  1.5012  0.9280  0.9280  0.0589  0.3018  0.2855  0.2359  0.2084
  0.1341  0.1810  0.1590  0.1518

 Free energy of the ion-electron system (eV)
  ---------------------------------------------------
  alpha Z        PSCENC =      4286.69391093
  Ewald energy   TEWEN  =    709707.10489467
  -Hartree energ DENC   =   -850943.75109097
  -exchange      EXHF   =         0.00000000
  -V(xc)+E(xc)   XCENC  =      4582.78732778
  PAW double counting   =    141879.20545443  -141091.79970942
  entropy T*S    EENTRO =        -0.03783200
  eigenvalues    EBANDS =    -19330.56257739
  atomic energy  EATOM  =    150179.37374676
  Solvation  Ediel_sol  =         0.00000000
  ---------------------------------------------------
  free energy    TOTEN  =      -730.98587523 eV

  energy without entropy =     -730.94804323  energy(sigma->0) =     -730.97326456


--------------------------------------------------------------------------------------------------------




--------------------------------------- Iteration      1(  16)  ---------------------------------------


    POTLOK:  cpu time    0.0331: real time    0.0336
    SETDIJ:  cpu time    0.0044: real time    0.0044
     EDDAV:  cpu time    2.0559: real time    2.0681
       DOS:  cpu time    0.0005: real time    0.0005
    CHARGE:  cpu time    0.0415: real time    0.0417
    MIXING:  cpu time    0.0024: real time    0.0024
    --------------------------------------------
      LOOP:  cpu time    2.1378: real time    2.1507

 eigenvalue-minimisations  :  1456
 total energy-change (2. order) : 0.4258502E-04  (-0.1521766E-04)
 number of electron    1128.0000804 magnetization 
 augmentation part      411.9975441 magnetization 

 Broyden mixing:
  rms(total) = 0.31125E-02    rms(broyden)= 0.31122E-02
  rms(prec ) = 0.37157E-02
  weight for this iteration     100.00

 eigenvalues of (default mixing * dielectric matrix)
  average eigenvalue GAMMA=   0.6635
  2.4134  1.5704  1.5704  0.9414  0.9414  0.8364  0.0589  0.2996  0.2729  0.2261
  0.1341  0.1990  0.1788  0.1579  0.1513

 Free energy of the ion-electron system (eV)
  ---------------------------------------------------
  alpha Z        PSCENC =      4286.69391093
  Ewald energy   TEWEN  =    709707.10489467
  -Hartree energ DENC   =   -850944.39859079
  -exchange      EXHF   =         0.00000000
  -V(xc)+E(xc)   XCENC  =      4582.78629971
  PAW double counting   =    141878.48534876  -141091.08325045
  entropy T*S    EENTRO =        -0.03757544
  eigenvalues    EBANDS =    -19329.91061681
  atomic energy  EATOM  =    150179.37374676
  Solvation  Ediel_sol  =         0.00000000
  ---------------------------------------------------
  free energy    TOTEN  =      -730.98583264 eV

  energy without entropy =     -730.94825721  energy(sigma->0) =     -730.97330750


--------------------------------------------------------------------------------------------------------




--------------------------------------- Iteration      1(  17)  ---------------------------------------


    POTLOK:  cpu time    0.0333: real time    0.0337
    SETDIJ:  cpu time    0.0044: real time    0.0044
     EDDAV:  cpu time    1.8240: real time    1.8350
       DOS:  cpu time    0.0006: real time    0.0005
    CHARGE:  cpu time    0.0414: real time    0.0416
    MIXING:  cpu time    0.0025: real time    0.0025
    --------------------------------------------
      LOOP:  cpu time    1.9061: real time    1.9178

 eigenvalue-minimisations  :  1272
 total energy-change (2. order) :-0.5114698E-04  (-0.7414328E-05)
 number of electron    1128.0000804 magnetization 
 augmentation part      411.9978554 magnetization 

 Broyden mixing:
  rms(total) = 0.47257E-02    rms(broyden)= 0.47256E-02
  rms(prec ) = 0.56025E-02
  weight for this iteration     100.00

 eigenvalues of (default mixing * dielectric matrix)
  average eigenvalue GAMMA=   0.6667
  2.5844  1.5844  1.5844  1.0572  1.0572  0.9147  0.0589  0.2987  0.2787  0.2287
  0.2113  0.1341  0.1899  0.1754  0.1580  0.1513

 Free energy of the ion-electron system (eV)
  ---------------------------------------------------
  alpha Z        PSCENC =      4286.69391093
  Ewald energy   TEWEN  =    709707.10489467
  -Hartree energ DENC   =   -850945.18752378
  -exchange      EXHF   =         0.00000000
  -V(xc)+E(xc)   XCENC  =      4582.78569201
  PAW double counting   =    141877.82423291  -141090.42507403
  entropy T*S    EENTRO =        -0.03768349
  eigenvalues    EBANDS =    -19329.11807977
  atomic energy  EATOM  =    150179.37374676
  Solvation  Ediel_sol  =         0.00000000
  ---------------------------------------------------
  free energy    TOTEN  =      -730.98588379 eV

  energy without entropy =     -730.94820030  energy(sigma->0) =     -730.97332263


--------------------------------------------------------------------------------------------------------




--------------------------------------- Iteration      1(  18)  ---------------------------------------


    POTLOK:  cpu time    0.0330: real time    0.0334
    SETDIJ:  cpu time    0.0044: real time    0.0044
     EDDAV:  cpu time    1.6530: real time    1.6630
       DOS:  cpu time    0.0005: real time    0.0005
    --------------------------------------------
      LOOP:  cpu time    1.6909: real time    1.7014

 eigenvalue-minimisations  :  1112
 total energy-change (2. order) :-0.5086680E-05  (-0.4098343E-05)
 number of electron    1128.0000804 magnetization 
 augmentation part      411.9978554 magnetization 

 Free energy of the ion-electron system (eV)
  ---------------------------------------------------
  alpha Z        PSCENC =      4286.69391093
  Ewald energy   TEWEN  =    709707.10489467
  -Hartree energ DENC   =   -850945.78320786
  -exchange      EXHF   =         0.00000000
  -V(xc)+E(xc)   XCENC  =      4582.78548556
  PAW double counting   =    141877.36585774  -141089.96863117
  entropy T*S    EENTRO =        -0.03764493
  eigenvalues    EBANDS =    -19328.52030058
  atomic energy  EATOM  =    150179.37374676
  Solvation  Ediel_sol  =         0.00000000
  ---------------------------------------------------
  free energy    TOTEN  =      -730.98588888 eV

  energy without entropy =     -730.94824395  energy(sigma->0) =     -730.97334057


--------------------------------------------------------------------------------------------------------




 average (electrostatic) potential at core
  the test charge radii are     1.1008  0.7089  0.5201
  (the norm of the test charge is              1.0000)
       1 -77.2255       2 -77.2792       3 -76.8424       4 -76.9965       5 -76.8570
       6 -77.2353       7 -77.2982       8 -76.8441       9 -76.9912      10 -76.8498
      11 -77.2265      12 -77.2763      13 -76.8405      14 -76.9751      15 -76.8955
      16 -77.2215      17 -77.3112      18 -76.8357      19 -76.9657      20 -76.8820
      21 -77.2280      22 -77.2835      23 -76.8490      24 -77.0122      25 -76.8710
      26 -77.2353      27 -77.2704      28 -76.8263      29 -76.9636      30 -76.9592
[...]
   0.148E+02 0.119E+02 -.319E+04   -.148E+02 -.119E+02 0.319E+04   -.527E-01 -.138E-01 0.458E+00   -.647E-03 0.340E-01 0.871E-01
   0.139E+00 -.104E+00 0.654E+04   -.212E+00 -.271E-01 -.654E+04   0.140E-01 -.237E-01 -.432E+01   0.783E-02 0.305E-01 -.298E-01
   0.348E+01 -.177E+01 0.710E+02   -.336E+01 0.165E+01 -.712E+02   -.119E+00 0.949E-01 0.100E+00   0.208E-03 0.138E-01 0.102E+00
   0.214E+01 0.131E+03 -.653E+04   -.207E+01 -.130E+03 0.652E+04   -.510E-01 -.842E+00 0.435E+01   -.526E-02 0.430E-01 0.309E-01
   -.206E+01 -.235E+01 0.332E+04   0.202E+01 0.235E+01 -.332E+04   -.136E-02 0.255E-01 -.715E+00   0.434E-01 0.686E-01 0.528E-01
   -.120E+02 0.166E+02 -.317E+04   0.119E+02 -.167E+02 0.317E+04   0.744E-01 0.923E-01 0.382E+00   0.170E-02 0.378E-01 0.887E-01
   -.406E+00 -.239E+00 0.654E+04   0.393E+00 0.178E+00 -.654E+04   -.477E-01 0.333E-02 -.435E+01   0.547E-01 0.470E-01 -.200E-01
   -.750E+01 -.429E+01 0.578E+02   0.736E+01 0.417E+01 -.580E+02   0.109E+00 0.106E+00 0.116E+00   0.278E-01 0.177E-01 0.740E-01
   -.204E+02 0.762E+02 -.651E+04   0.201E+02 -.758E+02 0.651E+04   0.235E+00 -.374E+00 0.439E+01   0.177E-01 0.378E-01 0.440E-01
   -.648E+00 0.275E+01 0.331E+04   0.640E+00 -.282E+01 -.331E+04   0.547E-01 -.178E-01 -.753E+00   0.207E-01 0.425E-01 -.695E-02
   0.254E+02 -.967E+01 -.319E+04   -.253E+02 0.966E+01 0.318E+04   -.911E-01 -.209E-01 0.410E+00   -.170E-01 0.275E-01 0.100E+00
   0.191E-01 0.506E-01 0.654E+04   -.763E-01 -.179E+00 -.654E+04   0.107E-01 -.994E-02 -.436E+01   0.134E-01 0.771E-01 -.256E-02
   0.868E+01 0.206E+01 0.572E+02   -.856E+01 -.213E+01 -.574E+02   -.111E+00 0.413E-01 0.115E+00   -.685E-02 0.281E-01 0.427E-01
   -.187E+02 0.156E+02 -.648E+04   0.180E+02 -.155E+02 0.648E+04   0.734E+00 -.924E-01 0.448E+01   -.120E-01 0.286E-01 0.375E-01
   0.144E+00 -.104E+01 0.332E+04   -.183E+00 0.104E+01 -.332E+04   -.243E-01 0.114E-01 -.725E+00   -.211E-01 0.351E-01 -.205E-01
   -.208E+02 0.619E+01 -.324E+04   0.211E+02 -.646E+01 0.324E+04   -.282E+00 0.257E+00 0.150E+00   -.156E-01 0.790E-02 0.866E-01
   0.244E+00 0.258E+00 0.654E+04   -.200E+00 -.180E+00 -.654E+04   0.458E-01 0.194E-01 -.502E+01   -.385E-01 0.803E-01 -.161E-01
   -.199E+01 -.621E+01 0.454E+02   0.199E+01 0.614E+01 -.458E+02   0.191E-01 0.431E-01 0.280E+00   -.803E-02 0.371E-01 0.611E-01
   -.322E+01 -.181E+02 -.630E+04   0.306E+01 0.178E+02 0.630E+04   0.158E+00 0.262E+00 0.291E+01   -.479E-02 0.104E-01 0.297E-01
   0.199E+01 -.498E+00 0.332E+04   -.193E+01 0.484E+00 -.332E+04   0.243E-01 0.120E-01 -.704E+00   -.159E-01 0.524E-01 0.266E-02
   0.231E+02 0.762E+01 -.324E+04   -.235E+02 -.788E+01 0.324E+04   0.318E+00 0.252E+00 0.129E+00   0.172E-01 0.489E-02 0.820E-01
   0.191E+00 0.322E+00 0.654E+04   -.143E+00 -.359E+00 -.654E+04   -.873E-02 0.543E-03 -.436E+01   -.195E-01 0.982E-01 -.123E-01
   0.832E-01 0.205E+01 0.633E+02   -.159E+00 -.212E+01 -.635E+02   0.737E-01 0.201E-01 0.118E+00   0.124E-02 0.410E-01 0.753E-01
   0.401E+02 -.325E+01 -.648E+04   -.392E+02 0.321E+01 0.648E+04   -.921E+00 0.646E-03 0.430E+01   0.129E-01 0.251E-01 0.248E-01
   -.145E+01 0.339E+01 0.332E+04   0.145E+01 -.349E+01 -.332E+04   -.552E-01 -.152E-01 -.773E+00   0.163E-01 0.631E-01 0.102E-01
   -.273E+02 -.132E+02 -.318E+04   0.272E+02 0.132E+02 0.318E+04   0.551E-01 -.392E-01 0.450E+00   0.801E-02 0.191E-01 0.999E-01
   -.426E+00 0.147E+00 0.654E+04   0.404E+00 -.227E+00 -.654E+04   -.393E-01 -.987E-02 -.436E+01   0.447E-01 0.105E+00 -.508E-02
   -.669E+01 -.514E+00 0.566E+02   0.668E+01 0.563E+00 -.568E+02   0.596E-02 -.980E-01 0.119E+00   0.156E-01 0.485E-01 0.731E-01
   -.192E+02 -.949E+02 -.651E+04   0.192E+02 0.942E+02 0.650E+04   0.372E-01 0.696E+00 0.417E+01   -.170E-02 0.477E-01 0.253E-01
   -.199E+01 -.224E+01 0.332E+04   0.202E+01 0.231E+01 -.332E+04   0.418E-03 -.834E-02 -.818E+00   0.608E-02 -.323E-01 0.610E-02
   0.497E+01 0.200E+01 -.323E+04   -.498E+01 -.203E+01 0.323E+04   0.164E-01 0.521E-01 0.460E+00   -.295E-02 -.176E-01 0.984E-01
   -.411E+00 -.726E-01 0.654E+04   0.316E+00 0.345E-01 -.654E+04   -.115E+00 0.769E-01 -.440E+01   0.144E-02 -.367E-01 -.269E-02
   0.323E+01 0.437E+01 0.652E+02   -.322E+01 -.437E+01 -.653E+02   0.583E-02 0.106E-01 0.113E+00   -.190E-01 -.785E-02 0.531E-01
   0.115E+03 0.713E+01 -.651E+04   -.114E+03 -.698E+01 0.650E+04   -.799E+00 -.148E+00 0.428E+01   -.309E-01 -.356E-02 0.349E-01
   -.173E+01 -.660E+00 0.332E+04   0.174E+01 0.780E+00 -.332E+04   0.340E-01 -.228E-01 -.748E+00   -.178E-01 -.772E-01 0.882E-02
   0.337E+01 -.548E+01 -.316E+04   -.335E+01 0.552E+01 0.316E+04   0.615E-02 -.428E-03 0.484E+00   -.297E-01 -.349E-01 0.887E-01
   0.239E+00 -.619E-03 0.654E+04   -.673E-01 0.217E-01 -.654E+04   0.139E-01 0.944E-02 -.445E+01   -.978E-02 -.636E-01 -.113E-01
   -.490E+01 -.112E+01 0.540E+02   0.496E+01 0.110E+01 -.542E+02   -.445E-01 0.481E-01 0.119E+00   -.808E-02 -.219E-01 0.479E-01
   -.956E+01 0.156E+02 -.645E+04   0.926E+01 -.149E+02 0.645E+04   0.325E+00 -.643E+00 0.427E+01   -.222E-01 -.280E-01 0.454E-01
   0.410E+00 0.210E+01 0.331E+04   -.402E+00 -.207E+01 -.331E+04   0.175E-01 -.694E-02 -.673E+00   -.515E-02 -.748E-01 0.624E-02
   0.104E+02 0.173E+02 -.316E+04   -.104E+02 -.171E+02 0.316E+04   0.194E-01 -.132E+00 0.469E+00   -.294E-02 -.382E-01 0.788E-01
   0.306E+00 -.181E+00 0.654E+04   -.371E+00 0.137E+00 -.654E+04   0.707E-02 -.152E-01 -.439E+01   -.201E-01 -.364E-01 -.535E-02
   0.649E+01 -.251E+00 0.552E+02   -.654E+01 0.196E+00 -.553E+02   0.384E-01 0.692E-01 0.111E+00   0.349E-02 -.148E-01 0.474E-01
   0.103E+02 0.577E+02 -.646E+04   -.999E+01 -.569E+02 0.645E+04   -.349E+00 -.802E+00 0.419E+01   0.149E-01 -.191E-01 0.424E-01
   0.343E+01 -.220E+01 0.332E+04   -.348E+01 0.226E+01 -.332E+04   -.433E-01 -.344E-01 -.768E+00   0.168E-01 -.387E-01 0.182E-01
   -.190E+02 -.881E+01 -.316E+04   0.190E+02 0.881E+01 0.316E+04   -.622E-01 0.264E-01 0.485E+00   0.366E-01 -.287E-01 0.873E-01
   -.105E+00 -.282E+00 0.654E+04   0.108E+00 0.189E+00 -.654E+04   0.698E-01 0.433E-01 -.442E+01   0.283E-01 -.362E-02 -.619E-02
   -.517E+01 -.982E+00 0.730E+02   0.514E+01 0.972E+00 -.732E+02   0.990E-02 0.469E-02 0.168E+00   0.238E-01 0.415E-02 0.682E-01
   -.116E+03 -.341E+02 -.651E+04   0.115E+03 0.339E+02 0.650E+04   0.797E+00 0.162E+00 0.430E+01   0.326E-01 -.927E-02 0.233E-01
   0.253E-01 -.271E+01 0.331E+04   -.195E-01 0.276E+01 -.331E+04   0.160E-01 0.648E-01 -.735E+00   0.136E-01 -.345E-01 0.385E-01
   0.138E+02 0.172E+02 -.319E+04   -.139E+02 -.171E+02 0.319E+04   0.491E-01 -.119E-01 0.368E+00   0.252E-01 -.274E-01 0.874E-01
   -.163E+00 -.482E+00 0.654E+04   0.170E+00 0.600E+00 -.654E+04   0.176E-01 -.131E+00 -.435E+01   -.157E-01 -.707E-01 -.837E-02
   0.791E+00 -.447E+01 0.589E+02   -.806E+00 0.445E+01 -.590E+02   0.260E-01 0.606E-01 0.911E-01   -.113E-01 -.382E-01 0.603E-01
   0.590E+02 0.112E+03 -.651E+04   -.586E+02 -.112E+03 0.650E+04   -.380E+00 -.587E+00 0.427E+01   -.771E-02 -.382E-01 0.440E-01
   -.170E+00 -.214E+01 0.331E+04   0.222E+00 0.217E+01 -.331E+04   -.105E-01 0.519E-01 -.744E+00   -.473E-01 -.613E-01 0.463E-01
   -.965E+01 0.779E+01 -.315E+04   0.975E+01 -.778E+01 0.315E+04   -.677E-01 0.852E-02 0.455E+00   -.320E-01 -.249E-01 0.944E-01
   0.435E+00 0.151E+00 0.654E+04   -.311E+00 0.108E+00 -.654E+04   0.647E-02 0.134E-01 -.441E+01   -.361E-01 -.110E+00 -.209E-01
   0.430E+01 -.442E+01 0.605E+02   -.431E+01 0.443E+01 -.607E+02   0.411E-01 0.329E-01 0.118E+00   -.244E-01 -.365E-01 0.670E-01
   -.712E+02 -.585E+02 -.651E+04   0.707E+02 0.581E+02 0.651E+04   0.546E+00 0.425E+00 0.434E+01   -.361E-01 -.337E-01 0.499E-01
   0.339E+01 0.118E+01 0.332E+04   -.343E+01 -.113E+01 -.332E+04   -.419E-01 -.206E-01 -.698E+00   -.317E-02 -.588E-01 0.637E-01
   -.232E+01 -.884E+01 -.325E+04   0.234E+01 0.882E+01 0.325E+04   -.108E-01 0.203E-01 0.384E+00   -.775E-02 0.434E-02 0.696E-01
   -.630E-01 0.289E+00 0.654E+04   -.775E-02 -.157E+00 -.654E+04   -.396E-01 0.530E-01 -.428E+01   0.144E-01 -.103E+00 -.234E-01
   -.158E+01 0.401E+01 0.746E+02   0.154E+01 -.381E+01 -.748E+02   0.300E-01 -.152E+00 0.547E-01   0.640E-02 -.368E-01 0.672E-01
   0.667E+02 -.119E+03 -.654E+04   -.662E+02 0.119E+03 0.653E+04   -.551E+00 0.674E+00 0.428E+01   0.294E-02 -.247E-01 0.445E-01
   -.324E+01 -.383E+00 0.332E+04   0.323E+01 0.393E+00 -.332E+04   0.468E-01 -.232E-01 -.708E+00   0.368E-01 -.277E-01 0.500E-01
   -.226E+01 -.287E+02 -.321E+04   0.218E+01 0.286E+02 0.321E+04   0.679E-01 0.362E-01 0.355E+00   0.169E-01 0.664E-02 0.758E-01
   -.200E+00 -.345E+00 0.654E+04   0.134E+00 0.480E+00 -.654E+04   0.321E-02 -.432E-01 -.438E+01   0.375E-01 -.532E-01 -.142E-01
   -.320E+01 -.776E+01 0.601E+02   0.327E+01 0.777E+01 -.603E+02   -.100E+00 0.202E-01 0.141E+00   0.307E-01 -.174E-01 0.620E-01
   -.542E+02 -.680E+02 -.651E+04   0.538E+02 0.678E+02 0.651E+04   0.332E+00 0.279E+00 0.437E+01   0.451E-01 -.166E-01 0.483E-01
   0.547E+00 -.421E+00 -.243E+04   -.457E+00 0.175E-01 0.241E+04   -.806E-01 0.413E+00 0.172E+02   -.432E-02 -.205E-02 -.795E-02
   0.523E+02 -.417E+02 -.487E+03   -.577E+02 0.461E+02 0.489E+03   0.546E+01 -.437E+01 -.228E+01   -.972E-03 0.315E-03 -.167E-02
   -.615E+02 -.251E+02 -.487E+03   0.680E+02 0.278E+02 0.489E+03   -.645E+01 -.263E+01 -.238E+01   0.446E-03 0.281E-03 -.130E-02
   0.996E+01 0.650E+02 -.487E+03   -.110E+02 -.718E+02 0.490E+03   0.103E+01 0.681E+01 -.259E+01   -.579E-03 0.416E-04 -.129E-02
 -----------------------------------------------------------------------------------------------
   0.161E+00 -.220E+00 -.681E+01   0.924E-12 -.523E-11 0.143E-10   -.162E+00 0.258E+00 0.332E+01   -.877E-02 0.263E-02 0.321E+01
 
 
 POSITION                                       TOTAL-FORCE (eV/Angst)
 -----------------------------------------------------------------------------------
     -0.00005      1.56339      7.26803        -0.043845     -0.001418     -0.667031
      0.00180      1.57197     11.53375        -0.000220      0.001840     -0.007354
      1.35397      0.78165      5.13406        -0.079447     -0.021676      0.799853
      1.35866      0.79280      9.39667        -0.005046     -0.010042     -0.006739
      1.38424      0.73131     13.58680         0.004722     -0.007890      0.001985
      2.70777      1.56339      7.26803        -0.010899     -0.145460     -0.789958
      2.70289      1.56094     11.53612        -0.002267     -0.003301     -0.006325
      4.06179      0.78165      5.13406         0.111190     -0.040626      0.748823
      4.05203      0.79392      9.40089         0.003211     -0.007794     -0.002346
      4.04854      0.72515     13.57454        -0.003903      0.009359      0.006084
      5.41560      1.56339      7.26803         0.026993      0.011324     -0.686746
      5.42644      1.56977     11.51517        -0.000940     -0.000701     -0.005090
      6.76962      0.78165      5.13406        -0.051945     -0.124428      0.718091
      6.76809      0.77662      9.38583         0.004750     -0.005867     -0.008749
      6.76291      0.85785     13.60682         0.012591      0.003827      0.000120
      8.12342      1.56339      7.26803         0.010906      0.089277     -0.803346
      8.11461      1.55146     11.51824         0.002408     -0.007617     -0.005665
      9.47744      0.78165      5.13406        -0.005887     -0.011285      0.667840
      9.47790      0.77930      9.39102        -0.000168     -0.003214     -0.008522
      9.45461      0.82006     13.59314        -0.004339      0.007874      0.007220
     -1.35397      3.90844      7.26803         0.067228     -0.042967     -0.828922
     -1.34645      3.90422     11.52126        -0.001061     -0.001092      0.005479
      0.00005      3.12670      5.13406        -0.033020     -0.061718      0.888700
      0.01030      3.12542      9.39495        -0.006205     -0.000036     -0.007877
     -0.08330      3.14452     13.60132         0.008169      0.016922      0.002600
      1.35386      3.90844      7.26803        -0.084078      0.049349     -0.715593
      1.34512      3.90923     11.54796        -0.003123     -0.006526     -0.005402
      2.70788      3.12670      5.13406         0.051246      0.176987      0.645077
      2.70503      3.12715      9.39409         0.006779      0.011201     -0.009056
      2.70608      3.12267     13.63275        -0.006527     -0.012707     -0.002632
      4.06168      3.90844      7.26803         0.066840      0.049044     -0.679135
      4.07024      3.90713     11.54670        -0.001841     -0.004111     -0.002936
      5.41570      3.12670      5.13406         0.019826      0.061069      0.859878
      5.40880      3.12948      9.39218        -0.001275     -0.002297     -0.008849
      5.50210      3.13112     13.60102         0.002855     -0.009134      0.002631
      6.76951      3.90844      7.26803        -0.043889     -0.050497     -0.875291
      6.76241      3.91036     11.52046        -0.005879     -0.008526     -0.007586
      8.12353      3.12670      5.13406        -0.016463      0.015974      0.870024
      8.12058      3.12560      9.39532         0.005248     -0.001081     -0.000144
      8.11648      3.05061     13.58615        -0.009086      0.008631     -0.004245
     -2.70788      6.25349      7.26803         0.029232      0.030253     -0.643094
     -2.71180      6.24611     11.52023         0.001848      0.005912     -0.003650
     -1.35386      5.47174      5.13406        -0.207442      0.001678      0.779511
     -1.35376      5.47405      9.38750        -0.002657     -0.001278      0.003347
     -1.29629      5.47807     13.57642         0.000891      0.000953      0.005391
     -0.00005      6.25349      7.26803         0.030932      0.020074     -0.851433
     -0.00273      6.25447     11.51929        -0.002315      0.004952     -0.000215
      1.35397      5.47174      5.13406         0.175894     -0.033642      0.684870
      1.35079      5.46040      9.39863         0.001275     -0.000575      0.010021
      1.33098      5.54538     13.57518        -0.004722     -0.006885     -0.002125
      2.70777      6.25349      7.26803         0.020339     -0.050305     -0.732379
      2.71039      6.27233     11.50958         0.003846      0.005557      0.009515
      4.06179      5.47174      5.13406        -0.078128     -0.096605      0.827260
      4.06279      5.46342      9.39806        -0.000745     -0.001180     -0.000759
      4.08888      5.55622     13.58318        -0.011088      0.008656      0.003555
      5.41560      6.25349      7.26803        -0.077313     -0.012405     -0.901163
      5.42059      6.25218     11.51973        -0.006930     -0.001918     -0.001526
      6.76962      5.47174      5.13406         0.100633     -0.053780      0.637401
      6.76813      5.47074      9.38004        -0.000197     -0.001793     -0.000179
      6.71174      5.45580     13.57282        -0.002336     -0.002972     -0.005334
     -4.06179      8.59853      7.26803         0.035507      0.075971     -0.797541
     -4.06821      8.60617     11.52509         0.005182     -0.001698      0.002723
     -2.70777      7.81679      5.13406         0.009004     -0.084599      0.929569
     -2.70994      7.81371      9.39239        -0.000305      0.003546     -0.003875
     -2.67011      7.88197     13.58124        -0.004112      0.000807      0.006855
     -1.35397      8.59853      7.26803        -0.005995      0.022799     -0.837664
     -1.34946      8.60276     11.51486         0.002391     -0.001434      0.009426
      0.00005      7.81679      5.13406         0.094853      0.161693      0.708493
      0.00342      7.81368      9.39583         0.008059      0.009443     -0.007147
     -0.06012      7.77867     13.58636         0.015588      0.001439     -0.003106
      1.35386      8.59853      7.26803        -0.084340     -0.030323     -0.676915
      1.35884      8.59964     11.52408         0.000736      0.003895     -0.010327
      2.70788      7.81679      5.13406        -0.095873      0.082194      0.831080
      2.70442      7.82100      9.38498        -0.001098      0.007370     -0.004823
      2.75387      7.74862     13.61735        -0.004202      0.004517     -0.005726
      4.06168      8.59853      7.26803         0.076987     -0.042261     -0.758290
      4.05344      8.59239     11.51861        -0.000671      0.009051      0.002367
      5.41570      7.81679      5.13406        -0.024896      0.038857      0.781687
      5.41509      7.81353      9.39329        -0.005117      0.006628      0.001705
      5.38549      7.78010     13.58627         0.009837      0.009464     -0.005859
      2.69495      3.15602     15.85636         0.005310      0.006987      0.021851
      1.94231      3.75952     16.19784         0.023961     -0.024866     -0.025585
      3.58344      3.51900     16.21117        -0.026056     -0.012092     -0.025836
      2.55362      2.21798     16.23945         0.010633      0.017246     -0.030943
 -----------------------------------------------------------------------------------
    total drift:                               -0.009914      0.041058     -0.269928


--------------------------------------------------------------------------------------------------------



  FREE ENERGIE OF THE ION-ELECTRON SYSTEM (eV)
  ---------------------------------------------------
  free  energy   TOTEN  =      -731.08634853 eV

  energy  without entropy=     -731.10216770  energy(sigma->0) =     -731.09162159
 
 d Force = 0.3019890E-03[ 0.234E-03, 0.370E-03]  d Energy = 0.3255901E-03-0.236E-04
 d Force = 0.1737285E+01[ 0.173E+01, 0.174E+01]  d Ewald  = 0.1737291E+01-0.566E-05


--------------------------------------------------------------------------------------------------------


    POTLOK:  cpu time    0.0377: real time    0.0379


--------------------------------------------------------------------------------------------------------


 stress matrix after NEB project (eV)
     -9.46813      1.04864      0.19819
      1.04864     -7.94879     -0.07960
      0.19819     -0.07960    -29.31012
  FORCES: max atom, RMS     0.042977    0.011028
  FORCE total and by dimension    0.101073    0.030943
  Stress total and by dimension   31.846548   29.310125
 Conjugate gradient step on ions:
 trial-energy change:   -0.000326  1 .order   -0.000302   -0.000370   -0.000234
  (g-gl).g = 0.389E-03      g.g   = 0.456E-03  gl.gl    = 0.687E-03
 g(Force)  = 0.456E-03   g(Stress)= 0.000E+00 ortho     = 0.497E-04
 gamma     =   0.56566
 trial     =   0.76351
 opt step  =   2.08495  (harmonic =   2.08495) maximal distance =0.00149426
 next E    =  -731.086528   (d E  =  -0.00050)


--------------------------------------------------------------------------------------------------------


  
 reached required accuracy - stopping structural energy minimisation
 writing wavefunctions
     LOOP+:  cpu time   14.0311: real time   14.2026
    4ORBIT:  cpu time    0.0000: real time    0.0000

 total amount of memory used by VASP MPI-rank0    46319. kBytes
=======================================================================

   base      :      30000. kBytes
   nonlr-proj:       1889. kBytes
   fftplans  :       2965. kBytes
   grid      :       5671. kBytes
   one-center:         46. kBytes
   wavefun   :       5748. kBytes
 
  
  
 General timing and accounting informations for this job:
 ========================================================
  
                  Total CPU time used (sec):      532.336
                            User time (sec):      530.416
                          System time (sec):        1.919
                         Elapsed time (sec):      539.157
  
                   Maximum memory used (kb):      539484.
                   Average memory used (kb):           0.
  
                          Minor page faults:       166067
                          Major page faults:          450
                 Voluntary context switches:        14408
